  LIGGGHTS Description 
 
           1687  atoms 
 
           1  atom types
           0  bond types
           0  angle types
           
-1.000000 2.500000 xlo xhi
-1.000000 2.500000 ylo yhi
-1.000000 2.500000 zlo zhi
 
   Atoms
 
1  1  0.05  2500  0  0  0  
2  1  0.05  2500  0.0707107  0.0707107  0  
3  1  0.05  2500  0.141421  0  0  
4  1  0.05  2500  0.212132  0.0707107  0  
5  1  0.05  2500  0.282843  0  0  
6  1  0.05  2500  0.353553  0.0707107  0  
7  1  0.05  2500  0.424264  0  0  
8  1  0.05  2500  0.494975  0.0707107  0  
9  1  0.05  2500  0.565685  0  0  
10  1  0.05  2500  0.636396  0.0707107  0  
11  1  0.05  2500  0.707107  0  0  
12  1  0.05  2500  0.777817  0.0707107  0  
13  1  0.05  2500  0.848528  0  0  
14  1  0.05  2500  0.919239  0.0707107  0  
15  1  0.05  2500  0.989949  0  0  
16  1  0.05  2500  0  0.141421  0  
17  1  0.05  2500  0.0707107  0.212132  0  
18  1  0.05  2500  0.141421  0.141421  0  
19  1  0.05  2500  0.212132  0.212132  0  
20  1  0.05  2500  0.282843  0.141421  0  
21  1  0.05  2500  0.353553  0.212132  0  
22  1  0.05  2500  0.424264  0.141421  0  
23  1  0.05  2500  0.494975  0.212132  0  
24  1  0.05  2500  0.565685  0.141421  0  
25  1  0.05  2500  0.636396  0.212132  0  
26  1  0.05  2500  0.707107  0.141421  0  
27  1  0.05  2500  0.777817  0.212132  0  
28  1  0.05  2500  0.848528  0.141421  0  
29  1  0.05  2500  0.919239  0.212132  0  
30  1  0.05  2500  0.989949  0.141421  0  
31  1  0.05  2500  0  0.282843  0  
32  1  0.05  2500  0.0707107  0.353553  0  
33  1  0.05  2500  0.141421  0.282843  0  
34  1  0.05  2500  0.212132  0.353553  0  
35  1  0.05  2500  0.282843  0.282843  0  
36  1  0.05  2500  0.353553  0.353553  0  
37  1  0.05  2500  0.424264  0.282843  0  
38  1  0.05  2500  0.494975  0.353553  0  
39  1  0.05  2500  0.565685  0.282843  0  
40  1  0.05  2500  0.636396  0.353553  0  
41  1  0.05  2500  0.707107  0.282843  0  
42  1  0.05  2500  0.777817  0.353553  0  
43  1  0.05  2500  0.848528  0.282843  0  
44  1  0.05  2500  0.919239  0.353553  0  
45  1  0.05  2500  0.989949  0.282843  0  
46  1  0.05  2500  0  0.424264  0  
47  1  0.05  2500  0.0707107  0.494975  0  
48  1  0.05  2500  0.141421  0.424264  0  
49  1  0.05  2500  0.212132  0.494975  0  
50  1  0.05  2500  0.282843  0.424264  0  
51  1  0.05  2500  0.353553  0.494975  0  
52  1  0.05  2500  0.424264  0.424264  0  
53  1  0.05  2500  0.494975  0.494975  0  
54  1  0.05  2500  0.565685  0.424264  0  
55  1  0.05  2500  0.636396  0.494975  0  
56  1  0.05  2500  0.707107  0.424264  0  
57  1  0.05  2500  0.777817  0.494975  0  
58  1  0.05  2500  0.848528  0.424264  0  
59  1  0.05  2500  0.919239  0.494975  0  
60  1  0.05  2500  0.989949  0.424264  0  
61  1  0.05  2500  0  0.565685  0  
62  1  0.05  2500  0.0707107  0.636396  0  
63  1  0.05  2500  0.141421  0.565685  0  
64  1  0.05  2500  0.212132  0.636396  0  
65  1  0.05  2500  0.282843  0.565685  0  
66  1  0.05  2500  0.353553  0.636396  0  
67  1  0.05  2500  0.424264  0.565685  0  
68  1  0.05  2500  0.494975  0.636396  0  
69  1  0.05  2500  0.565685  0.565685  0  
70  1  0.05  2500  0.636396  0.636396  0  
71  1  0.05  2500  0.707107  0.565685  0  
72  1  0.05  2500  0.777817  0.636396  0  
73  1  0.05  2500  0.848528  0.565685  0  
74  1  0.05  2500  0.919239  0.636396  0  
75  1  0.05  2500  0.989949  0.565685  0  
76  1  0.05  2500  0  0.707107  0  
77  1  0.05  2500  0.0707107  0.777817  0  
78  1  0.05  2500  0.141421  0.707107  0  
79  1  0.05  2500  0.212132  0.777817  0  
80  1  0.05  2500  0.282843  0.707107  0  
81  1  0.05  2500  0.353553  0.777817  0  
82  1  0.05  2500  0.424264  0.707107  0  
83  1  0.05  2500  0.494975  0.777817  0  
84  1  0.05  2500  0.565685  0.707107  0  
85  1  0.05  2500  0.636396  0.777817  0  
86  1  0.05  2500  0.707107  0.707107  0  
87  1  0.05  2500  0.777817  0.777817  0  
88  1  0.05  2500  0.848528  0.707107  0  
89  1  0.05  2500  0.919239  0.777817  0  
90  1  0.05  2500  0.989949  0.707107  0  
91  1  0.05  2500  0  0.848528  0  
92  1  0.05  2500  0.0707107  0.919239  0  
93  1  0.05  2500  0.141421  0.848528  0  
94  1  0.05  2500  0.212132  0.919239  0  
95  1  0.05  2500  0.282843  0.848528  0  
96  1  0.05  2500  0.353553  0.919239  0  
97  1  0.05  2500  0.424264  0.848528  0  
98  1  0.05  2500  0.494975  0.919239  0  
99  1  0.05  2500  0.565685  0.848528  0  
100  1  0.05  2500  0.636396  0.919239  0  
101  1  0.05  2500  0.707107  0.848528  0  
102  1  0.05  2500  0.777817  0.919239  0  
103  1  0.05  2500  0.848528  0.848528  0  
104  1  0.05  2500  0.919239  0.919239  0  
105  1  0.05  2500  0.989949  0.848528  0  
106  1  0.05  2500  0  0.989949  0  
107  1  0.05  2500  0.141421  0.989949  0  
108  1  0.05  2500  0.282843  0.989949  0  
109  1  0.05  2500  0.424264  0.989949  0  
110  1  0.05  2500  0.565685  0.989949  0  
111  1  0.05  2500  0.707107  0.989949  0  
112  1  0.05  2500  0.848528  0.989949  0  
113  1  0.05  2500  0.989949  0.989949  0  
114  1  0.05  2500  0  0  0.141421  
115  1  0.05  2500  0.0707107  0.0707107  0.141421  
116  1  0.05  2500  0.141421  0  0.141421  
117  1  0.05  2500  0.212132  0.0707107  0.141421  
118  1  0.05  2500  0.282843  0  0.141421  
119  1  0.05  2500  0.353553  0.0707107  0.141421  
120  1  0.05  2500  0.424264  0  0.141421  
121  1  0.05  2500  0.494975  0.0707107  0.141421  
122  1  0.05  2500  0.565685  0  0.141421  
123  1  0.05  2500  0.636396  0.0707107  0.141421  
124  1  0.05  2500  0.707107  0  0.141421  
125  1  0.05  2500  0.777817  0.0707107  0.141421  
126  1  0.05  2500  0.848528  0  0.141421  
127  1  0.05  2500  0.919239  0.0707107  0.141421  
128  1  0.05  2500  0.989949  0  0.141421  
129  1  0.05  2500  0  0.141421  0.141421  
130  1  0.05  2500  0.0707107  0.212132  0.141421  
131  1  0.05  2500  0.141421  0.141421  0.141421  
132  1  0.05  2500  0.212132  0.212132  0.141421  
133  1  0.05  2500  0.282843  0.141421  0.141421  
134  1  0.05  2500  0.353553  0.212132  0.141421  
135  1  0.05  2500  0.424264  0.141421  0.141421  
136  1  0.05  2500  0.494975  0.212132  0.141421  
137  1  0.05  2500  0.565685  0.141421  0.141421  
138  1  0.05  2500  0.636396  0.212132  0.141421  
139  1  0.05  2500  0.707107  0.141421  0.141421  
140  1  0.05  2500  0.777817  0.212132  0.141421  
141  1  0.05  2500  0.848528  0.141421  0.141421  
142  1  0.05  2500  0.919239  0.212132  0.141421  
143  1  0.05  2500  0.989949  0.141421  0.141421  
144  1  0.05  2500  0  0.282843  0.141421  
145  1  0.05  2500  0.0707107  0.353553  0.141421  
146  1  0.05  2500  0.141421  0.282843  0.141421  
147  1  0.05  2500  0.212132  0.353553  0.141421  
148  1  0.05  2500  0.282843  0.282843  0.141421  
149  1  0.05  2500  0.353553  0.353553  0.141421  
150  1  0.05  2500  0.424264  0.282843  0.141421  
151  1  0.05  2500  0.494975  0.353553  0.141421  
152  1  0.05  2500  0.565685  0.282843  0.141421  
153  1  0.05  2500  0.636396  0.353553  0.141421  
154  1  0.05  2500  0.707107  0.282843  0.141421  
155  1  0.05  2500  0.777817  0.353553  0.141421  
156  1  0.05  2500  0.848528  0.282843  0.141421  
157  1  0.05  2500  0.919239  0.353553  0.141421  
158  1  0.05  2500  0.989949  0.282843  0.141421  
159  1  0.05  2500  0  0.424264  0.141421  
160  1  0.05  2500  0.0707107  0.494975  0.141421  
161  1  0.05  2500  0.141421  0.424264  0.141421  
162  1  0.05  2500  0.212132  0.494975  0.141421  
163  1  0.05  2500  0.282843  0.424264  0.141421  
164  1  0.05  2500  0.353553  0.494975  0.141421  
165  1  0.05  2500  0.424264  0.424264  0.141421  
166  1  0.05  2500  0.494975  0.494975  0.141421  
167  1  0.05  2500  0.565685  0.424264  0.141421  
168  1  0.05  2500  0.636396  0.494975  0.141421  
169  1  0.05  2500  0.707107  0.424264  0.141421  
170  1  0.05  2500  0.777817  0.494975  0.141421  
171  1  0.05  2500  0.848528  0.424264  0.141421  
172  1  0.05  2500  0.919239  0.494975  0.141421  
173  1  0.05  2500  0.989949  0.424264  0.141421  
174  1  0.05  2500  0  0.565685  0.141421  
175  1  0.05  2500  0.0707107  0.636396  0.141421  
176  1  0.05  2500  0.141421  0.565685  0.141421  
177  1  0.05  2500  0.212132  0.636396  0.141421  
178  1  0.05  2500  0.282843  0.565685  0.141421  
179  1  0.05  2500  0.353553  0.636396  0.141421  
180  1  0.05  2500  0.424264  0.565685  0.141421  
181  1  0.05  2500  0.494975  0.636396  0.141421  
182  1  0.05  2500  0.565685  0.565685  0.141421  
183  1  0.05  2500  0.636396  0.636396  0.141421  
184  1  0.05  2500  0.707107  0.565685  0.141421  
185  1  0.05  2500  0.777817  0.636396  0.141421  
186  1  0.05  2500  0.848528  0.565685  0.141421  
187  1  0.05  2500  0.919239  0.636396  0.141421  
188  1  0.05  2500  0.989949  0.565685  0.141421  
189  1  0.05  2500  0  0.707107  0.141421  
190  1  0.05  2500  0.0707107  0.777817  0.141421  
191  1  0.05  2500  0.141421  0.707107  0.141421  
192  1  0.05  2500  0.212132  0.777817  0.141421  
193  1  0.05  2500  0.282843  0.707107  0.141421  
194  1  0.05  2500  0.353553  0.777817  0.141421  
195  1  0.05  2500  0.424264  0.707107  0.141421  
196  1  0.05  2500  0.494975  0.777817  0.141421  
197  1  0.05  2500  0.565685  0.707107  0.141421  
198  1  0.05  2500  0.636396  0.777817  0.141421  
199  1  0.05  2500  0.707107  0.707107  0.141421  
200  1  0.05  2500  0.777817  0.777817  0.141421  
201  1  0.05  2500  0.848528  0.707107  0.141421  
202  1  0.05  2500  0.919239  0.777817  0.141421  
203  1  0.05  2500  0.989949  0.707107  0.141421  
204  1  0.05  2500  0  0.848528  0.141421  
205  1  0.05  2500  0.0707107  0.919239  0.141421  
206  1  0.05  2500  0.141421  0.848528  0.141421  
207  1  0.05  2500  0.212132  0.919239  0.141421  
208  1  0.05  2500  0.282843  0.848528  0.141421  
209  1  0.05  2500  0.353553  0.919239  0.141421  
210  1  0.05  2500  0.424264  0.848528  0.141421  
211  1  0.05  2500  0.494975  0.919239  0.141421  
212  1  0.05  2500  0.565685  0.848528  0.141421  
213  1  0.05  2500  0.636396  0.919239  0.141421  
214  1  0.05  2500  0.707107  0.848528  0.141421  
215  1  0.05  2500  0.777817  0.919239  0.141421  
216  1  0.05  2500  0.848528  0.848528  0.141421  
217  1  0.05  2500  0.919239  0.919239  0.141421  
218  1  0.05  2500  0.989949  0.848528  0.141421  
219  1  0.05  2500  0  0.989949  0.141421  
220  1  0.05  2500  0.141421  0.989949  0.141421  
221  1  0.05  2500  0.282843  0.989949  0.141421  
222  1  0.05  2500  0.424264  0.989949  0.141421  
223  1  0.05  2500  0.565685  0.989949  0.141421  
224  1  0.05  2500  0.707107  0.989949  0.141421  
225  1  0.05  2500  0.848528  0.989949  0.141421  
226  1  0.05  2500  0.989949  0.989949  0.141421  
227  1  0.05  2500  0  0  0.282843  
228  1  0.05  2500  0.0707107  0.0707107  0.282843  
229  1  0.05  2500  0.141421  0  0.282843  
230  1  0.05  2500  0.212132  0.0707107  0.282843  
231  1  0.05  2500  0.282843  0  0.282843  
232  1  0.05  2500  0.353553  0.0707107  0.282843  
233  1  0.05  2500  0.424264  0  0.282843  
234  1  0.05  2500  0.494975  0.0707107  0.282843  
235  1  0.05  2500  0.565685  0  0.282843  
236  1  0.05  2500  0.636396  0.0707107  0.282843  
237  1  0.05  2500  0.707107  0  0.282843  
238  1  0.05  2500  0.777817  0.0707107  0.282843  
239  1  0.05  2500  0.848528  0  0.282843  
240  1  0.05  2500  0.919239  0.0707107  0.282843  
241  1  0.05  2500  0.989949  0  0.282843  
242  1  0.05  2500  0  0.141421  0.282843  
243  1  0.05  2500  0.0707107  0.212132  0.282843  
244  1  0.05  2500  0.141421  0.141421  0.282843  
245  1  0.05  2500  0.212132  0.212132  0.282843  
246  1  0.05  2500  0.282843  0.141421  0.282843  
247  1  0.05  2500  0.353553  0.212132  0.282843  
248  1  0.05  2500  0.424264  0.141421  0.282843  
249  1  0.05  2500  0.494975  0.212132  0.282843  
250  1  0.05  2500  0.565685  0.141421  0.282843  
251  1  0.05  2500  0.636396  0.212132  0.282843  
252  1  0.05  2500  0.707107  0.141421  0.282843  
253  1  0.05  2500  0.777817  0.212132  0.282843  
254  1  0.05  2500  0.848528  0.141421  0.282843  
255  1  0.05  2500  0.919239  0.212132  0.282843  
256  1  0.05  2500  0.989949  0.141421  0.282843  
257  1  0.05  2500  0  0.282843  0.282843  
258  1  0.05  2500  0.0707107  0.353553  0.282843  
259  1  0.05  2500  0.141421  0.282843  0.282843  
260  1  0.05  2500  0.212132  0.353553  0.282843  
261  1  0.05  2500  0.282843  0.282843  0.282843  
262  1  0.05  2500  0.353553  0.353553  0.282843  
263  1  0.05  2500  0.424264  0.282843  0.282843  
264  1  0.05  2500  0.494975  0.353553  0.282843  
265  1  0.05  2500  0.565685  0.282843  0.282843  
266  1  0.05  2500  0.636396  0.353553  0.282843  
267  1  0.05  2500  0.707107  0.282843  0.282843  
268  1  0.05  2500  0.777817  0.353553  0.282843  
269  1  0.05  2500  0.848528  0.282843  0.282843  
270  1  0.05  2500  0.919239  0.353553  0.282843  
271  1  0.05  2500  0.989949  0.282843  0.282843  
272  1  0.05  2500  0  0.424264  0.282843  
273  1  0.05  2500  0.0707107  0.494975  0.282843  
274  1  0.05  2500  0.141421  0.424264  0.282843  
275  1  0.05  2500  0.212132  0.494975  0.282843  
276  1  0.05  2500  0.282843  0.424264  0.282843  
277  1  0.05  2500  0.353553  0.494975  0.282843  
278  1  0.05  2500  0.424264  0.424264  0.282843  
279  1  0.05  2500  0.494975  0.494975  0.282843  
280  1  0.05  2500  0.565685  0.424264  0.282843  
281  1  0.05  2500  0.636396  0.494975  0.282843  
282  1  0.05  2500  0.707107  0.424264  0.282843  
283  1  0.05  2500  0.777817  0.494975  0.282843  
284  1  0.05  2500  0.848528  0.424264  0.282843  
285  1  0.05  2500  0.919239  0.494975  0.282843  
286  1  0.05  2500  0.989949  0.424264  0.282843  
287  1  0.05  2500  0  0.565685  0.282843  
288  1  0.05  2500  0.0707107  0.636396  0.282843  
289  1  0.05  2500  0.141421  0.565685  0.282843  
290  1  0.05  2500  0.212132  0.636396  0.282843  
291  1  0.05  2500  0.282843  0.565685  0.282843  
292  1  0.05  2500  0.353553  0.636396  0.282843  
293  1  0.05  2500  0.424264  0.565685  0.282843  
294  1  0.05  2500  0.494975  0.636396  0.282843  
295  1  0.05  2500  0.565685  0.565685  0.282843  
296  1  0.05  2500  0.636396  0.636396  0.282843  
297  1  0.05  2500  0.707107  0.565685  0.282843  
298  1  0.05  2500  0.777817  0.636396  0.282843  
299  1  0.05  2500  0.848528  0.565685  0.282843  
300  1  0.05  2500  0.919239  0.636396  0.282843  
301  1  0.05  2500  0.989949  0.565685  0.282843  
302  1  0.05  2500  0  0.707107  0.282843  
303  1  0.05  2500  0.0707107  0.777817  0.282843  
304  1  0.05  2500  0.141421  0.707107  0.282843  
305  1  0.05  2500  0.212132  0.777817  0.282843  
306  1  0.05  2500  0.282843  0.707107  0.282843  
307  1  0.05  2500  0.353553  0.777817  0.282843  
308  1  0.05  2500  0.424264  0.707107  0.282843  
309  1  0.05  2500  0.494975  0.777817  0.282843  
310  1  0.05  2500  0.565685  0.707107  0.282843  
311  1  0.05  2500  0.636396  0.777817  0.282843  
312  1  0.05  2500  0.707107  0.707107  0.282843  
313  1  0.05  2500  0.777817  0.777817  0.282843  
314  1  0.05  2500  0.848528  0.707107  0.282843  
315  1  0.05  2500  0.919239  0.777817  0.282843  
316  1  0.05  2500  0.989949  0.707107  0.282843  
317  1  0.05  2500  0  0.848528  0.282843  
318  1  0.05  2500  0.0707107  0.919239  0.282843  
319  1  0.05  2500  0.141421  0.848528  0.282843  
320  1  0.05  2500  0.212132  0.919239  0.282843  
321  1  0.05  2500  0.282843  0.848528  0.282843  
322  1  0.05  2500  0.353553  0.919239  0.282843  
323  1  0.05  2500  0.424264  0.848528  0.282843  
324  1  0.05  2500  0.494975  0.919239  0.282843  
325  1  0.05  2500  0.565685  0.848528  0.282843  
326  1  0.05  2500  0.636396  0.919239  0.282843  
327  1  0.05  2500  0.707107  0.848528  0.282843  
328  1  0.05  2500  0.777817  0.919239  0.282843  
329  1  0.05  2500  0.848528  0.848528  0.282843  
330  1  0.05  2500  0.919239  0.919239  0.282843  
331  1  0.05  2500  0.989949  0.848528  0.282843  
332  1  0.05  2500  0  0.989949  0.282843  
333  1  0.05  2500  0.141421  0.989949  0.282843  
334  1  0.05  2500  0.282843  0.989949  0.282843  
335  1  0.05  2500  0.424264  0.989949  0.282843  
336  1  0.05  2500  0.565685  0.989949  0.282843  
337  1  0.05  2500  0.707107  0.989949  0.282843  
338  1  0.05  2500  0.848528  0.989949  0.282843  
339  1  0.05  2500  0.989949  0.989949  0.282843  
340  1  0.05  2500  0  0  0.424264  
341  1  0.05  2500  0.0707107  0.0707107  0.424264  
342  1  0.05  2500  0.141421  0  0.424264  
343  1  0.05  2500  0.212132  0.0707107  0.424264  
344  1  0.05  2500  0.282843  0  0.424264  
345  1  0.05  2500  0.353553  0.0707107  0.424264  
346  1  0.05  2500  0.424264  0  0.424264  
347  1  0.05  2500  0.494975  0.0707107  0.424264  
348  1  0.05  2500  0.565685  0  0.424264  
349  1  0.05  2500  0.636396  0.0707107  0.424264  
350  1  0.05  2500  0.707107  0  0.424264  
351  1  0.05  2500  0.777817  0.0707107  0.424264  
352  1  0.05  2500  0.848528  0  0.424264  
353  1  0.05  2500  0.919239  0.0707107  0.424264  
354  1  0.05  2500  0.989949  0  0.424264  
355  1  0.05  2500  0  0.141421  0.424264  
356  1  0.05  2500  0.0707107  0.212132  0.424264  
357  1  0.05  2500  0.141421  0.141421  0.424264  
358  1  0.05  2500  0.212132  0.212132  0.424264  
359  1  0.05  2500  0.282843  0.141421  0.424264  
360  1  0.05  2500  0.353553  0.212132  0.424264  
361  1  0.05  2500  0.424264  0.141421  0.424264  
362  1  0.05  2500  0.494975  0.212132  0.424264  
363  1  0.05  2500  0.565685  0.141421  0.424264  
364  1  0.05  2500  0.636396  0.212132  0.424264  
365  1  0.05  2500  0.707107  0.141421  0.424264  
366  1  0.05  2500  0.777817  0.212132  0.424264  
367  1  0.05  2500  0.848528  0.141421  0.424264  
368  1  0.05  2500  0.919239  0.212132  0.424264  
369  1  0.05  2500  0.989949  0.141421  0.424264  
370  1  0.05  2500  0  0.282843  0.424264  
371  1  0.05  2500  0.0707107  0.353553  0.424264  
372  1  0.05  2500  0.141421  0.282843  0.424264  
373  1  0.05  2500  0.212132  0.353553  0.424264  
374  1  0.05  2500  0.282843  0.282843  0.424264  
375  1  0.05  2500  0.353553  0.353553  0.424264  
376  1  0.05  2500  0.424264  0.282843  0.424264  
377  1  0.05  2500  0.494975  0.353553  0.424264  
378  1  0.05  2500  0.565685  0.282843  0.424264  
379  1  0.05  2500  0.636396  0.353553  0.424264  
380  1  0.05  2500  0.707107  0.282843  0.424264  
381  1  0.05  2500  0.777817  0.353553  0.424264  
382  1  0.05  2500  0.848528  0.282843  0.424264  
383  1  0.05  2500  0.919239  0.353553  0.424264  
384  1  0.05  2500  0.989949  0.282843  0.424264  
385  1  0.05  2500  0  0.424264  0.424264  
386  1  0.05  2500  0.0707107  0.494975  0.424264  
387  1  0.05  2500  0.141421  0.424264  0.424264  
388  1  0.05  2500  0.212132  0.494975  0.424264  
389  1  0.05  2500  0.282843  0.424264  0.424264  
390  1  0.05  2500  0.353553  0.494975  0.424264  
391  1  0.05  2500  0.424264  0.424264  0.424264  
392  1  0.05  2500  0.494975  0.494975  0.424264  
393  1  0.05  2500  0.565685  0.424264  0.424264  
394  1  0.05  2500  0.636396  0.494975  0.424264  
395  1  0.05  2500  0.707107  0.424264  0.424264  
396  1  0.05  2500  0.777817  0.494975  0.424264  
397  1  0.05  2500  0.848528  0.424264  0.424264  
398  1  0.05  2500  0.919239  0.494975  0.424264  
399  1  0.05  2500  0.989949  0.424264  0.424264  
400  1  0.05  2500  0  0.565685  0.424264  
401  1  0.05  2500  0.0707107  0.636396  0.424264  
402  1  0.05  2500  0.141421  0.565685  0.424264  
403  1  0.05  2500  0.212132  0.636396  0.424264  
404  1  0.05  2500  0.282843  0.565685  0.424264  
405  1  0.05  2500  0.353553  0.636396  0.424264  
406  1  0.05  2500  0.424264  0.565685  0.424264  
407  1  0.05  2500  0.494975  0.636396  0.424264  
408  1  0.05  2500  0.565685  0.565685  0.424264  
409  1  0.05  2500  0.636396  0.636396  0.424264  
410  1  0.05  2500  0.707107  0.565685  0.424264  
411  1  0.05  2500  0.777817  0.636396  0.424264  
412  1  0.05  2500  0.848528  0.565685  0.424264  
413  1  0.05  2500  0.919239  0.636396  0.424264  
414  1  0.05  2500  0.989949  0.565685  0.424264  
415  1  0.05  2500  0  0.707107  0.424264  
416  1  0.05  2500  0.0707107  0.777817  0.424264  
417  1  0.05  2500  0.141421  0.707107  0.424264  
418  1  0.05  2500  0.212132  0.777817  0.424264  
419  1  0.05  2500  0.282843  0.707107  0.424264  
420  1  0.05  2500  0.353553  0.777817  0.424264  
421  1  0.05  2500  0.424264  0.707107  0.424264  
422  1  0.05  2500  0.494975  0.777817  0.424264  
423  1  0.05  2500  0.565685  0.707107  0.424264  
424  1  0.05  2500  0.636396  0.777817  0.424264  
425  1  0.05  2500  0.707107  0.707107  0.424264  
426  1  0.05  2500  0.777817  0.777817  0.424264  
427  1  0.05  2500  0.848528  0.707107  0.424264  
428  1  0.05  2500  0.919239  0.777817  0.424264  
429  1  0.05  2500  0.989949  0.707107  0.424264  
430  1  0.05  2500  0  0.848528  0.424264  
431  1  0.05  2500  0.0707107  0.919239  0.424264  
432  1  0.05  2500  0.141421  0.848528  0.424264  
433  1  0.05  2500  0.212132  0.919239  0.424264  
434  1  0.05  2500  0.282843  0.848528  0.424264  
435  1  0.05  2500  0.353553  0.919239  0.424264  
436  1  0.05  2500  0.424264  0.848528  0.424264  
437  1  0.05  2500  0.494975  0.919239  0.424264  
438  1  0.05  2500  0.565685  0.848528  0.424264  
439  1  0.05  2500  0.636396  0.919239  0.424264  
440  1  0.05  2500  0.707107  0.848528  0.424264  
441  1  0.05  2500  0.777817  0.919239  0.424264  
442  1  0.05  2500  0.848528  0.848528  0.424264  
443  1  0.05  2500  0.919239  0.919239  0.424264  
444  1  0.05  2500  0.989949  0.848528  0.424264  
445  1  0.05  2500  0  0.989949  0.424264  
446  1  0.05  2500  0.141421  0.989949  0.424264  
447  1  0.05  2500  0.282843  0.989949  0.424264  
448  1  0.05  2500  0.424264  0.989949  0.424264  
449  1  0.05  2500  0.565685  0.989949  0.424264  
450  1  0.05  2500  0.707107  0.989949  0.424264  
451  1  0.05  2500  0.848528  0.989949  0.424264  
452  1  0.05  2500  0.989949  0.989949  0.424264  
453  1  0.05  2500  0  0  0.565685  
454  1  0.05  2500  0.0707107  0.0707107  0.565685  
455  1  0.05  2500  0.141421  0  0.565685  
456  1  0.05  2500  0.212132  0.0707107  0.565685  
457  1  0.05  2500  0.282843  0  0.565685  
458  1  0.05  2500  0.353553  0.0707107  0.565685  
459  1  0.05  2500  0.424264  0  0.565685  
460  1  0.05  2500  0.494975  0.0707107  0.565685  
461  1  0.05  2500  0.565685  0  0.565685  
462  1  0.05  2500  0.636396  0.0707107  0.565685  
463  1  0.05  2500  0.707107  0  0.565685  
464  1  0.05  2500  0.777817  0.0707107  0.565685  
465  1  0.05  2500  0.848528  0  0.565685  
466  1  0.05  2500  0.919239  0.0707107  0.565685  
467  1  0.05  2500  0.989949  0  0.565685  
468  1  0.05  2500  0  0.141421  0.565685  
469  1  0.05  2500  0.0707107  0.212132  0.565685  
470  1  0.05  2500  0.141421  0.141421  0.565685  
471  1  0.05  2500  0.212132  0.212132  0.565685  
472  1  0.05  2500  0.282843  0.141421  0.565685  
473  1  0.05  2500  0.353553  0.212132  0.565685  
474  1  0.05  2500  0.424264  0.141421  0.565685  
475  1  0.05  2500  0.494975  0.212132  0.565685  
476  1  0.05  2500  0.565685  0.141421  0.565685  
477  1  0.05  2500  0.636396  0.212132  0.565685  
478  1  0.05  2500  0.707107  0.141421  0.565685  
479  1  0.05  2500  0.777817  0.212132  0.565685  
480  1  0.05  2500  0.848528  0.141421  0.565685  
481  1  0.05  2500  0.919239  0.212132  0.565685  
482  1  0.05  2500  0.989949  0.141421  0.565685  
483  1  0.05  2500  0  0.282843  0.565685  
484  1  0.05  2500  0.0707107  0.353553  0.565685  
485  1  0.05  2500  0.141421  0.282843  0.565685  
486  1  0.05  2500  0.212132  0.353553  0.565685  
487  1  0.05  2500  0.282843  0.282843  0.565685  
488  1  0.05  2500  0.353553  0.353553  0.565685  
489  1  0.05  2500  0.424264  0.282843  0.565685  
490  1  0.05  2500  0.494975  0.353553  0.565685  
491  1  0.05  2500  0.565685  0.282843  0.565685  
492  1  0.05  2500  0.636396  0.353553  0.565685  
493  1  0.05  2500  0.707107  0.282843  0.565685  
494  1  0.05  2500  0.777817  0.353553  0.565685  
495  1  0.05  2500  0.848528  0.282843  0.565685  
496  1  0.05  2500  0.919239  0.353553  0.565685  
497  1  0.05  2500  0.989949  0.282843  0.565685  
498  1  0.05  2500  0  0.424264  0.565685  
499  1  0.05  2500  0.0707107  0.494975  0.565685  
500  1  0.05  2500  0.141421  0.424264  0.565685  
501  1  0.05  2500  0.212132  0.494975  0.565685  
502  1  0.05  2500  0.282843  0.424264  0.565685  
503  1  0.05  2500  0.353553  0.494975  0.565685  
504  1  0.05  2500  0.424264  0.424264  0.565685  
505  1  0.05  2500  0.494975  0.494975  0.565685  
506  1  0.05  2500  0.565685  0.424264  0.565685  
507  1  0.05  2500  0.636396  0.494975  0.565685  
508  1  0.05  2500  0.707107  0.424264  0.565685  
509  1  0.05  2500  0.777817  0.494975  0.565685  
510  1  0.05  2500  0.848528  0.424264  0.565685  
511  1  0.05  2500  0.919239  0.494975  0.565685  
512  1  0.05  2500  0.989949  0.424264  0.565685  
513  1  0.05  2500  0  0.565685  0.565685  
514  1  0.05  2500  0.0707107  0.636396  0.565685  
515  1  0.05  2500  0.141421  0.565685  0.565685  
516  1  0.05  2500  0.212132  0.636396  0.565685  
517  1  0.05  2500  0.282843  0.565685  0.565685  
518  1  0.05  2500  0.353553  0.636396  0.565685  
519  1  0.05  2500  0.424264  0.565685  0.565685  
520  1  0.05  2500  0.494975  0.636396  0.565685  
521  1  0.05  2500  0.565685  0.565685  0.565685  
522  1  0.05  2500  0.636396  0.636396  0.565685  
523  1  0.05  2500  0.707107  0.565685  0.565685  
524  1  0.05  2500  0.777817  0.636396  0.565685  
525  1  0.05  2500  0.848528  0.565685  0.565685  
526  1  0.05  2500  0.919239  0.636396  0.565685  
527  1  0.05  2500  0.989949  0.565685  0.565685  
528  1  0.05  2500  0  0.707107  0.565685  
529  1  0.05  2500  0.0707107  0.777817  0.565685  
530  1  0.05  2500  0.141421  0.707107  0.565685  
531  1  0.05  2500  0.212132  0.777817  0.565685  
532  1  0.05  2500  0.282843  0.707107  0.565685  
533  1  0.05  2500  0.353553  0.777817  0.565685  
534  1  0.05  2500  0.424264  0.707107  0.565685  
535  1  0.05  2500  0.494975  0.777817  0.565685  
536  1  0.05  2500  0.565685  0.707107  0.565685  
537  1  0.05  2500  0.636396  0.777817  0.565685  
538  1  0.05  2500  0.707107  0.707107  0.565685  
539  1  0.05  2500  0.777817  0.777817  0.565685  
540  1  0.05  2500  0.848528  0.707107  0.565685  
541  1  0.05  2500  0.919239  0.777817  0.565685  
542  1  0.05  2500  0.989949  0.707107  0.565685  
543  1  0.05  2500  0  0.848528  0.565685  
544  1  0.05  2500  0.0707107  0.919239  0.565685  
545  1  0.05  2500  0.141421  0.848528  0.565685  
546  1  0.05  2500  0.212132  0.919239  0.565685  
547  1  0.05  2500  0.282843  0.848528  0.565685  
548  1  0.05  2500  0.353553  0.919239  0.565685  
549  1  0.05  2500  0.424264  0.848528  0.565685  
550  1  0.05  2500  0.494975  0.919239  0.565685  
551  1  0.05  2500  0.565685  0.848528  0.565685  
552  1  0.05  2500  0.636396  0.919239  0.565685  
553  1  0.05  2500  0.707107  0.848528  0.565685  
554  1  0.05  2500  0.777817  0.919239  0.565685  
555  1  0.05  2500  0.848528  0.848528  0.565685  
556  1  0.05  2500  0.919239  0.919239  0.565685  
557  1  0.05  2500  0.989949  0.848528  0.565685  
558  1  0.05  2500  0  0.989949  0.565685  
559  1  0.05  2500  0.141421  0.989949  0.565685  
560  1  0.05  2500  0.282843  0.989949  0.565685  
561  1  0.05  2500  0.424264  0.989949  0.565685  
562  1  0.05  2500  0.565685  0.989949  0.565685  
563  1  0.05  2500  0.707107  0.989949  0.565685  
564  1  0.05  2500  0.848528  0.989949  0.565685  
565  1  0.05  2500  0.989949  0.989949  0.565685  
566  1  0.05  2500  0  0  0.707107  
567  1  0.05  2500  0.0707107  0.0707107  0.707107  
568  1  0.05  2500  0.141421  0  0.707107  
569  1  0.05  2500  0.212132  0.0707107  0.707107  
570  1  0.05  2500  0.282843  0  0.707107  
571  1  0.05  2500  0.353553  0.0707107  0.707107  
572  1  0.05  2500  0.424264  0  0.707107  
573  1  0.05  2500  0.494975  0.0707107  0.707107  
574  1  0.05  2500  0.565685  0  0.707107  
575  1  0.05  2500  0.636396  0.0707107  0.707107  
576  1  0.05  2500  0.707107  0  0.707107  
577  1  0.05  2500  0.777817  0.0707107  0.707107  
578  1  0.05  2500  0.848528  0  0.707107  
579  1  0.05  2500  0.919239  0.0707107  0.707107  
580  1  0.05  2500  0.989949  0  0.707107  
581  1  0.05  2500  0  0.141421  0.707107  
582  1  0.05  2500  0.0707107  0.212132  0.707107  
583  1  0.05  2500  0.141421  0.141421  0.707107  
584  1  0.05  2500  0.212132  0.212132  0.707107  
585  1  0.05  2500  0.282843  0.141421  0.707107  
586  1  0.05  2500  0.353553  0.212132  0.707107  
587  1  0.05  2500  0.424264  0.141421  0.707107  
588  1  0.05  2500  0.494975  0.212132  0.707107  
589  1  0.05  2500  0.565685  0.141421  0.707107  
590  1  0.05  2500  0.636396  0.212132  0.707107  
591  1  0.05  2500  0.707107  0.141421  0.707107  
592  1  0.05  2500  0.777817  0.212132  0.707107  
593  1  0.05  2500  0.848528  0.141421  0.707107  
594  1  0.05  2500  0.919239  0.212132  0.707107  
595  1  0.05  2500  0.989949  0.141421  0.707107  
596  1  0.05  2500  0  0.282843  0.707107  
597  1  0.05  2500  0.0707107  0.353553  0.707107  
598  1  0.05  2500  0.141421  0.282843  0.707107  
599  1  0.05  2500  0.212132  0.353553  0.707107  
600  1  0.05  2500  0.282843  0.282843  0.707107  
601  1  0.05  2500  0.353553  0.353553  0.707107  
602  1  0.05  2500  0.424264  0.282843  0.707107  
603  1  0.05  2500  0.494975  0.353553  0.707107  
604  1  0.05  2500  0.565685  0.282843  0.707107  
605  1  0.05  2500  0.636396  0.353553  0.707107  
606  1  0.05  2500  0.707107  0.282843  0.707107  
607  1  0.05  2500  0.777817  0.353553  0.707107  
608  1  0.05  2500  0.848528  0.282843  0.707107  
609  1  0.05  2500  0.919239  0.353553  0.707107  
610  1  0.05  2500  0.989949  0.282843  0.707107  
611  1  0.05  2500  0  0.424264  0.707107  
612  1  0.05  2500  0.0707107  0.494975  0.707107  