  LIGGGHTS Description 
 
           1687  atoms 
 
           200  atom types
           0  bond types
           0  angle types
           
-1.000000 2.500000 xlo xhi
-1.000000 2.500000 ylo yhi
-1.000000 2.500000 zlo zhi
 
   Atoms
 
1  200  0.10  2500  0  0  0  
2  200  0.10  2500  0.0707107  0.0707107  0  
3  200  0.10  2500  0.141421  0  0  
4  200  0.10  2500  0.212132  0.0707107  0  
5  200  0.10  2500  0.282843  0  0  
6  200  0.10  2500  0.353553  0.0707107  0  
7  200  0.10  2500  0.424264  0  0  
8  200  0.10  2500  0.494975  0.0707107  0  
9  200  0.10  2500  0.565685  0  0  
10  200  0.10  2500  0.636396  0.0707107  0  
11  200  0.10  2500  0.707107  0  0  
12  200  0.10  2500  0.777817  0.0707107  0  
13  200  0.10  2500  0.848528  0  0  
14  200  0.10  2500  0.919239  0.0707107  0  
15  200  0.10  2500  0.989949  0  0  
16  200  0.10  2500  0  0.141421  0  
17  200  0.10  2500  0.0707107  0.212132  0  
18  200  0.10  2500  0.141421  0.141421  0  
19  200  0.10  2500  0.212132  0.212132  0  
20  200  0.10  2500  0.282843  0.141421  0  
21  200  0.10  2500  0.353553  0.212132  0  
22  200  0.10  2500  0.424264  0.141421  0  
23  200  0.10  2500  0.494975  0.212132  0  
24  200  0.10  2500  0.565685  0.141421  0  
25  200  0.10  2500  0.636396  0.212132  0  
26  200  0.10  2500  0.707107  0.141421  0  
27  200  0.10  2500  0.777817  0.212132  0  
28  200  0.10  2500  0.848528  0.141421  0  
29  200  0.10  2500  0.919239  0.212132  0  
30  200  0.10  2500  0.989949  0.141421  0  
31  200  0.10  2500  0  0.282843  0  
32  200  0.10  2500  0.0707107  0.353553  0  
33  200  0.10  2500  0.141421  0.282843  0  
34  200  0.10  2500  0.212132  0.353553  0  
35  200  0.10  2500  0.282843  0.282843  0  
36  200  0.10  2500  0.353553  0.353553  0  
37  200  0.10  2500  0.424264  0.282843  0  
38  200  0.10  2500  0.494975  0.353553  0  
39  200  0.10  2500  0.565685  0.282843  0  
40  200  0.10  2500  0.636396  0.353553  0  
41  200  0.10  2500  0.707107  0.282843  0  
42  200  0.10  2500  0.777817  0.353553  0  
43  200  0.10  2500  0.848528  0.282843  0  
44  200  0.10  2500  0.919239  0.353553  0  
45  200  0.10  2500  0.989949  0.282843  0  
46  200  0.10  2500  0  0.424264  0  
47  200  0.10  2500  0.0707107  0.494975  0  
48  200  0.10  2500  0.141421  0.424264  0  
49  200  0.10  2500  0.212132  0.494975  0  
50  200  0.10  2500  0.282843  0.424264  0  
51  200  0.10  2500  0.353553  0.494975  0  
52  200  0.10  2500  0.424264  0.424264  0  
53  200  0.10  2500  0.494975  0.494975  0  
54  200  0.10  2500  0.565685  0.424264  0  
55  200  0.10  2500  0.636396  0.494975  0  
56  200  0.10  2500  0.707107  0.424264  0  
57  200  0.10  2500  0.777817  0.494975  0  
58  200  0.10  2500  0.848528  0.424264  0  
59  200  0.10  2500  0.919239  0.494975  0  
60  200  0.10  2500  0.989949  0.424264  0  
61  200  0.10  2500  0  0.565685  0  
62  200  0.10  2500  0.0707107  0.636396  0  
63  200  0.10  2500  0.141421  0.565685  0  
64  200  0.10  2500  0.212132  0.636396  0  
65  200  0.10  2500  0.282843  0.565685  0  
66  200  0.10  2500  0.353553  0.636396  0  
67  200  0.10  2500  0.424264  0.565685  0  
68  200  0.10  2500  0.494975  0.636396  0  
69  200  0.10  2500  0.565685  0.565685  0  
70  200  0.10  2500  0.636396  0.636396  0  
71  200  0.10  2500  0.707107  0.565685  0  
72  200  0.10  2500  0.777817  0.636396  0  
73  200  0.10  2500  0.848528  0.565685  0  
74  200  0.10  2500  0.919239  0.636396  0  
75  200  0.10  2500  0.989949  0.565685  0  
76  200  0.10  2500  0  0.707107  0  
77  200  0.10  2500  0.0707107  0.777817  0  
78  200  0.10  2500  0.141421  0.707107  0  
79  200  0.10  2500  0.212132  0.777817  0  
80  200  0.10  2500  0.282843  0.707107  0  
81  200  0.10  2500  0.353553  0.777817  0  
82  200  0.10  2500  0.424264  0.707107  0  
83  200  0.10  2500  0.494975  0.777817  0  
84  200  0.10  2500  0.565685  0.707107  0  
85  200  0.10  2500  0.636396  0.777817  0  
86  200  0.10  2500  0.707107  0.707107  0  
87  200  0.10  2500  0.777817  0.777817  0  
88  200  0.10  2500  0.848528  0.707107  0  
89  200  0.10  2500  0.919239  0.777817  0  
90  200  0.10  2500  0.989949  0.707107  0  
91  200  0.10  2500  0  0.848528  0  
92  200  0.10  2500  0.0707107  0.919239  0  
93  200  0.10  2500  0.141421  0.848528  0  
94  200  0.10  2500  0.212132  0.919239  0  
95  200  0.10  2500  0.282843  0.848528  0  
96  200  0.10  2500  0.353553  0.919239  0  
97  200  0.10  2500  0.424264  0.848528  0  
98  200  0.10  2500  0.494975  0.919239  0  
99  200  0.10  2500  0.565685  0.848528  0  
100  200  0.10  2500  0.636396  0.919239  0  
101  200  0.10  2500  0.707107  0.848528  0  
102  200  0.10  2500  0.777817  0.919239  0  
103  200  0.10  2500  0.848528  0.848528  0  
104  200  0.10  2500  0.919239  0.919239  0  
105  200  0.10  2500  0.989949  0.848528  0  
106  200  0.10  2500  0  0.989949  0  
107  200  0.10  2500  0.141421  0.989949  0  
108  200  0.10  2500  0.282843  0.989949  0  
109  200  0.10  2500  0.424264  0.989949  0  
110  200  0.10  2500  0.565685  0.989949  0  
111  200  0.10  2500  0.707107  0.989949  0  
112  200  0.10  2500  0.848528  0.989949  0  
113  200  0.10  2500  0.989949  0.989949  0  
114  200  0.10  2500  0  0  0.141421  
115  200  0.10  2500  0.0707107  0.0707107  0.141421  
116  200  0.10  2500  0.141421  0  0.141421  
117  200  0.10  2500  0.212132  0.0707107  0.141421  
118  200  0.10  2500  0.282843  0  0.141421  
119  200  0.10  2500  0.353553  0.0707107  0.141421  
120  200  0.10  2500  0.424264  0  0.141421  
121  200  0.10  2500  0.494975  0.0707107  0.141421  
122  200  0.10  2500  0.565685  0  0.141421  
123  200  0.10  2500  0.636396  0.0707107  0.141421  
124  200  0.10  2500  0.707107  0  0.141421  
125  200  0.10  2500  0.777817  0.0707107  0.141421  
126  200  0.10  2500  0.848528  0  0.141421  
127  200  0.10  2500  0.919239  0.0707107  0.141421  
128  200  0.10  2500  0.989949  0  0.141421  
129  200  0.10  2500  0  0.141421  0.141421  
130  200  0.10  2500  0.0707107  0.212132  0.141421  
131  200  0.10  2500  0.141421  0.141421  0.141421  
132  200  0.10  2500  0.212132  0.212132  0.141421  
133  200  0.10  2500  0.282843  0.141421  0.141421  
134  200  0.10  2500  0.353553  0.212132  0.141421  
135  200  0.10  2500  0.424264  0.141421  0.141421  
136  200  0.10  2500  0.494975  0.212132  0.141421  
137  200  0.10  2500  0.565685  0.141421  0.141421  
138  200  0.10  2500  0.636396  0.212132  0.141421  
139  200  0.10  2500  0.707107  0.141421  0.141421  
140  200  0.10  2500  0.777817  0.212132  0.141421  
141  200  0.10  2500  0.848528  0.141421  0.141421  
142  200  0.10  2500  0.919239  0.212132  0.141421  
143  200  0.10  2500  0.989949  0.141421  0.141421  
144  200  0.10  2500  0  0.282843  0.141421  
145  200  0.10  2500  0.0707107  0.353553  0.141421  
146  200  0.10  2500  0.141421  0.282843  0.141421  
147  200  0.10  2500  0.212132  0.353553  0.141421  
148  200  0.10  2500  0.282843  0.282843  0.141421  
149  200  0.10  2500  0.353553  0.353553  0.141421  
150  200  0.10  2500  0.424264  0.282843  0.141421  
151  200  0.10  2500  0.494975  0.353553  0.141421  
152  200  0.10  2500  0.565685  0.282843  0.141421  
153  200  0.10  2500  0.636396  0.353553  0.141421  
154  200  0.10  2500  0.707107  0.282843  0.141421  
155  200  0.10  2500  0.777817  0.353553  0.141421  
156  200  0.10  2500  0.848528  0.282843  0.141421  
157  200  0.10  2500  0.919239  0.353553  0.141421  
158  200  0.10  2500  0.989949  0.282843  0.141421  
159  200  0.10  2500  0  0.424264  0.141421  
160  200  0.10  2500  0.0707107  0.494975  0.141421  
161  200  0.10  2500  0.141421  0.424264  0.141421  
162  200  0.10  2500  0.212132  0.494975  0.141421  
163  200  0.10  2500  0.282843  0.424264  0.141421  
164  200  0.10  2500  0.353553  0.494975  0.141421  
165  200  0.10  2500  0.424264  0.424264  0.141421  
166  200  0.10  2500  0.494975  0.494975  0.141421  
167  200  0.10  2500  0.565685  0.424264  0.141421  
168  200  0.10  2500  0.636396  0.494975  0.141421  
169  200  0.10  2500  0.707107  0.424264  0.141421  
170  200  0.10  2500  0.777817  0.494975  0.141421  
171  200  0.10  2500  0.848528  0.424264  0.141421  
172  200  0.10  2500  0.919239  0.494975  0.141421  
173  200  0.10  2500  0.989949  0.424264  0.141421  
174  200  0.10  2500  0  0.565685  0.141421  
175  200  0.10  2500  0.0707107  0.636396  0.141421  
176  200  0.10  2500  0.141421  0.565685  0.141421  
177  200  0.10  2500  0.212132  0.636396  0.141421  
178  200  0.10  2500  0.282843  0.565685  0.141421  
179  200  0.10  2500  0.353553  0.636396  0.141421  
180  200  0.10  2500  0.424264  0.565685  0.141421  
181  200  0.10  2500  0.494975  0.636396  0.141421  
182  200  0.10  2500  0.565685  0.565685  0.141421  
183  200  0.10  2500  0.636396  0.636396  0.141421  
184  200  0.10  2500  0.707107  0.565685  0.141421  
185  200  0.10  2500  0.777817  0.636396  0.141421  
186  200  0.10  2500  0.848528  0.565685  0.141421  
187  200  0.10  2500  0.919239  0.636396  0.141421  
188  200  0.10  2500  0.989949  0.565685  0.141421  
189  200  0.10  2500  0  0.707107  0.141421  
190  200  0.10  2500  0.0707107  0.777817  0.141421  
191  200  0.10  2500  0.141421  0.707107  0.141421  
192  200  0.10  2500  0.212132  0.777817  0.141421  
193  200  0.10  2500  0.282843  0.707107  0.141421  
194  200  0.10  2500  0.353553  0.777817  0.141421  
195  200  0.10  2500  0.424264  0.707107  0.141421  
196  200  0.10  2500  0.494975  0.777817  0.141421  
197  200  0.10  2500  0.565685  0.707107  0.141421  
198  200  0.10  2500  0.636396  0.777817  0.141421  
199  200  0.10  2500  0.707107  0.707107  0.141421  
200  200  0.10  2500  0.777817  0.777817  0.141421  
201  200  0.10  2500  0.848528  0.707107  0.141421  
202  200  0.10  2500  0.919239  0.777817  0.141421  
203  200  0.10  2500  0.989949  0.707107  0.141421  
204  200  0.10  2500  0  0.848528  0.141421  
205  200  0.10  2500  0.0707107  0.919239  0.141421  
206  200  0.10  2500  0.141421  0.848528  0.141421  
207  200  0.10  2500  0.212132  0.919239  0.141421  
208  200  0.10  2500  0.282843  0.848528  0.141421  
209  200  0.10  2500  0.353553  0.919239  0.141421  
210  200  0.10  2500  0.424264  0.848528  0.141421  
211  200  0.10  2500  0.494975  0.919239  0.141421  
212  200  0.10  2500  0.565685  0.848528  0.141421  
213  200  0.10  2500  0.636396  0.919239  0.141421  
214  200  0.10  2500  0.707107  0.848528  0.141421  
215  200  0.10  2500  0.777817  0.919239  0.141421  
216  200  0.10  2500  0.848528  0.848528  0.141421  
217  200  0.10  2500  0.919239  0.919239  0.141421  
218  200  0.10  2500  0.989949  0.848528  0.141421  
219  200  0.10  2500  0  0.989949  0.141421  
220  200  0.10  2500  0.141421  0.989949  0.141421  
221  200  0.10  2500  0.282843  0.989949  0.141421  
222  200  0.10  2500  0.424264  0.989949  0.141421  
223  200  0.10  2500  0.565685  0.989949  0.141421  
224  200  0.10  2500  0.707107  0.989949  0.141421  
225  200  0.10  2500  0.848528  0.989949  0.141421  
226  200  0.10  2500  0.989949  0.989949  0.141421  
227  200  0.10  2500  0  0  0.282843  
228  200  0.10  2500  0.0707107  0.0707107  0.282843  
229  200  0.10  2500  0.141421  0  0.282843  
230  200  0.10  2500  0.212132  0.0707107  0.282843  
231  200  0.10  2500  0.282843  0  0.282843  
232  200  0.10  2500  0.353553  0.0707107  0.282843  
233  200  0.10  2500  0.424264  0  0.282843  
234  200  0.10  2500  0.494975  0.0707107  0.282843  
235  200  0.10  2500  0.565685  0  0.282843  
236  200  0.10  2500  0.636396  0.0707107  0.282843  
237  200  0.10  2500  0.707107  0  0.282843  
238  200  0.10  2500  0.777817  0.0707107  0.282843  
239  200  0.10  2500  0.848528  0  0.282843  
240  200  0.10  2500  0.919239  0.0707107  0.282843  
241  200  0.10  2500  0.989949  0  0.282843  
242  200  0.10  2500  0  0.141421  0.282843  
243  200  0.10  2500  0.0707107  0.212132  0.282843  
244  200  0.10  2500  0.141421  0.141421  0.282843  
245  200  0.10  2500  0.212132  0.212132  0.282843  
246  200  0.10  2500  0.282843  0.141421  0.282843  
247  200  0.10  2500  0.353553  0.212132  0.282843  
248  200  0.10  2500  0.424264  0.141421  0.282843  
249  200  0.10  2500  0.494975  0.212132  0.282843  
250  200  0.10  2500  0.565685  0.141421  0.282843  
251  200  0.10  2500  0.636396  0.212132  0.282843  
252  200  0.10  2500  0.707107  0.141421  0.282843  
253  200  0.10  2500  0.777817  0.212132  0.282843  
254  200  0.10  2500  0.848528  0.141421  0.282843  
255  200  0.10  2500  0.919239  0.212132  0.282843  
256  200  0.10  2500  0.989949  0.141421  0.282843  
257  200  0.10  2500  0  0.282843  0.282843  
258  200  0.10  2500  0.0707107  0.353553  0.282843  
259  200  0.10  2500  0.141421  0.282843  0.282843  
260  200  0.10  2500  0.212132  0.353553  0.282843  
261  200  0.10  2500  0.282843  0.282843  0.282843  
262  200  0.10  2500  0.353553  0.353553  0.282843  
263  200  0.10  2500  0.424264  0.282843  0.282843  
264  200  0.10  2500  0.494975  0.353553  0.282843  
265  200  0.10  2500  0.565685  0.282843  0.282843  
266  200  0.10  2500  0.636396  0.353553  0.282843  
267  200  0.10  2500  0.707107  0.282843  0.282843  
268  200  0.10  2500  0.777817  0.353553  0.282843  
269  200  0.10  2500  0.848528  0.282843  0.282843  
270  200  0.10  2500  0.919239  0.353553  0.282843  
271  200  0.10  2500  0.989949  0.282843  0.282843  
272  200  0.10  2500  0  0.424264  0.282843  
273  200  0.10  2500  0.0707107  0.494975  0.282843  
274  200  0.10  2500  0.141421  0.424264  0.282843  
275  200  0.10  2500  0.212132  0.494975  0.282843  
276  200  0.10  2500  0.282843  0.424264  0.282843  
277  200  0.10  2500  0.353553  0.494975  0.282843  
278  200  0.10  2500  0.424264  0.424264  0.282843  
279  200  0.10  2500  0.494975  0.494975  0.282843  
280  200  0.10  2500  0.565685  0.424264  0.282843  
281  200  0.10  2500  0.636396  0.494975  0.282843  
282  200  0.10  2500  0.707107  0.424264  0.282843  
283  200  0.10  2500  0.777817  0.494975  0.282843  
284  200  0.10  2500  0.848528  0.424264  0.282843  
285  200  0.10  2500  0.919239  0.494975  0.282843  
286  200  0.10  2500  0.989949  0.424264  0.282843  
287  200  0.10  2500  0  0.565685  0.282843  
288  200  0.10  2500  0.0707107  0.636396  0.282843  
289  200  0.10  2500  0.141421  0.565685  0.282843  
290  200  0.10  2500  0.212132  0.636396  0.282843  
291  200  0.10  2500  0.282843  0.565685  0.282843  
292  200  0.10  2500  0.353553  0.636396  0.282843  
293  200  0.10  2500  0.424264  0.565685  0.282843  
294  200  0.10  2500  0.494975  0.636396  0.282843  
295  200  0.10  2500  0.565685  0.565685  0.282843  
296  200  0.10  2500  0.636396  0.636396  0.282843  
297  200  0.10  2500  0.707107  0.565685  0.282843  
298  200  0.10  2500  0.777817  0.636396  0.282843  
299  200  0.10  2500  0.848528  0.565685  0.282843  
300  200  0.10  2500  0.919239  0.636396  0.282843  
301  200  0.10  2500  0.989949  0.565685  0.282843  
302  200  0.10  2500  0  0.707107  0.282843  
303  200  0.10  2500  0.0707107  0.777817  0.282843  
304  200  0.10  2500  0.141421  0.707107  0.282843  
305  200  0.10  2500  0.212132  0.777817  0.282843  
306  200  0.10  2500  0.282843  0.707107  0.282843  
307  200  0.10  2500  0.353553  0.777817  0.282843  
308  200  0.10  2500  0.424264  0.707107  0.282843  
309  200  0.10  2500  0.494975  0.777817  0.282843  
310  200  0.10  2500  0.565685  0.707107  0.282843  
311  200  0.10  2500  0.636396  0.777817  0.282843  
312  200  0.10  2500  0.707107  0.707107  0.282843  
313  200  0.10  2500  0.777817  0.777817  0.282843  
314  200  0.10  2500  0.848528  0.707107  0.282843  
315  200  0.10  2500  0.919239  0.777817  0.282843  
316  200  0.10  2500  0.989949  0.707107  0.282843  
317  200  0.10  2500  0  0.848528  0.282843  
318  200  0.10  2500  0.0707107  0.919239  0.282843  
319  200  0.10  2500  0.141421  0.848528  0.282843  
320  200  0.10  2500  0.212132  0.919239  0.282843  
321  200  0.10  2500  0.282843  0.848528  0.282843  
322  200  0.10  2500  0.353553  0.919239  0.282843  
323  200  0.10  2500  0.424264  0.848528  0.282843  
324  200  0.10  2500  0.494975  0.919239  0.282843  
325  200  0.10  2500  0.565685  0.848528  0.282843  
326  200  0.10  2500  0.636396  0.919239  0.282843  
327  200  0.10  2500  0.707107  0.848528  0.282843  
328  200  0.10  2500  0.777817  0.919239  0.282843  
329  200  0.10  2500  0.848528  0.848528  0.282843  
330  200  0.10  2500  0.919239  0.919239  0.282843  
331  200  0.10  2500  0.989949  0.848528  0.282843  
332  200  0.10  2500  0  0.989949  0.282843  
333  200  0.10  2500  0.141421  0.989949  0.282843  
334  200  0.10  2500  0.282843  0.989949  0.282843  
335  200  0.10  2500  0.424264  0.989949  0.282843  
336  200  0.10  2500  0.565685  0.989949  0.282843  
337  200  0.10  2500  0.707107  0.989949  0.282843  
338  200  0.10  2500  0.848528  0.989949  0.282843  
339  200  0.10  2500  0.989949  0.989949  0.282843  
340  200  0.10  2500  0  0  0.424264  
341  200  0.10  2500  0.0707107  0.0707107  0.424264  
342  200  0.10  2500  0.141421  0  0.424264  
343  200  0.10  2500  0.212132  0.0707107  0.424264  
344  200  0.10  2500  0.282843  0  0.424264  
345  200  0.10  2500  0.353553  0.0707107  0.424264  
346  200  0.10  2500  0.424264  0  0.424264  
347  200  0.10  2500  0.494975  0.0707107  0.424264  
348  200  0.10  2500  0.565685  0  0.424264  
349  200  0.10  2500  0.636396  0.0707107  0.424264  
350  200  0.10  2500  0.707107  0  0.424264  
351  200  0.10  2500  0.777817  0.0707107  0.424264  
352  200  0.10  2500  0.848528  0  0.424264  
353  200  0.10  2500  0.919239  0.0707107  0.424264  
354  200  0.10  2500  0.989949  0  0.424264  
355  200  0.10  2500  0  0.141421  0.424264  
356  200  0.10  2500  0.0707107  0.212132  0.424264  
357  200  0.10  2500  0.141421  0.141421  0.424264  
358  200  0.10  2500  0.212132  0.212132  0.424264  
359  200  0.10  2500  0.282843  0.141421  0.424264  
360  200  0.10  2500  0.353553  0.212132  0.424264  
361  200  0.10  2500  0.424264  0.141421  0.424264  
362  200  0.10  2500  0.494975  0.212132  0.424264  
363  200  0.10  2500  0.565685  0.141421  0.424264  
364  200  0.10  2500  0.636396  0.212132  0.424264  
365  200  0.10  2500  0.707107  0.141421  0.424264  
366  200  0.10  2500  0.777817  0.212132  0.424264  
367  200  0.10  2500  0.848528  0.141421  0.424264  
368  200  0.10  2500  0.919239  0.212132  0.424264  
369  200  0.10  2500  0.989949  0.141421  0.424264  
370  200  0.10  2500  0  0.282843  0.424264  
371  200  0.10  2500  0.0707107  0.353553  0.424264  
372  200  0.10  2500  0.141421  0.282843  0.424264  
373  200  0.10  2500  0.212132  0.353553  0.424264  
374  200  0.10  2500  0.282843  0.282843  0.424264  
375  200  0.10  2500  0.353553  0.353553  0.424264  
376  200  0.10  2500  0.424264  0.282843  0.424264  
377  200  0.10  2500  0.494975  0.353553  0.424264  
378  200  0.10  2500  0.565685  0.282843  0.424264  
379  200  0.10  2500  0.636396  0.353553  0.424264  
380  200  0.10  2500  0.707107  0.282843  0.424264  
381  200  0.10  2500  0.777817  0.353553  0.424264  
382  200  0.10  2500  0.848528  0.282843  0.424264  
383  200  0.10  2500  0.919239  0.353553  0.424264  
384  200  0.10  2500  0.989949  0.282843  0.424264  
385  200  0.10  2500  0  0.424264  0.424264  
386  200  0.10  2500  0.0707107  0.494975  0.424264  
387  200  0.10  2500  0.141421  0.424264  0.424264  
388  200  0.10  2500  0.212132  0.494975  0.424264  
389  200  0.10  2500  0.282843  0.424264  0.424264  
390  200  0.10  2500  0.353553  0.494975  0.424264  
391  200  0.10  2500  0.424264  0.424264  0.424264  
392  200  0.10  2500  0.494975  0.494975  0.424264  
393  200  0.10  2500  0.565685  0.424264  0.424264  
394  200  0.10  2500  0.636396  0.494975  0.424264  
395  200  0.10  2500  0.707107  0.424264  0.424264  
396  200  0.10  2500  0.777817  0.494975  0.424264  
397  200  0.10  2500  0.848528  0.424264  0.424264  
398  200  0.10  2500  0.919239  0.494975  0.424264  
399  200  0.10  2500  0.989949  0.424264  0.424264  
400  200  0.10  2500  0  0.565685  0.424264  
401  200  0.10  2500  0.0707107  0.636396  0.424264  
402  200  0.10  2500  0.141421  0.565685  0.424264  
403  200  0.10  2500  0.212132  0.636396  0.424264  
404  200  0.10  2500  0.282843  0.565685  0.424264  
405  200  0.10  2500  0.353553  0.636396  0.424264  
406  200  0.10  2500  0.424264  0.565685  0.424264  
407  200  0.10  2500  0.494975  0.636396  0.424264  
408  200  0.10  2500  0.565685  0.565685  0.424264  
409  200  0.10  2500  0.636396  0.636396  0.424264  
410  200  0.10  2500  0.707107  0.565685  0.424264  
411  200  0.10  2500  0.777817  0.636396  0.424264  
412  200  0.10  2500  0.848528  0.565685  0.424264  
413  200  0.10  2500  0.919239  0.636396  0.424264  
414  200  0.10  2500  0.989949  0.565685  0.424264  
415  200  0.10  2500  0  0.707107  0.424264  
416  200  0.10  2500  0.0707107  0.777817  0.424264  
417  200  0.10  2500  0.141421  0.707107  0.424264  
418  200  0.10  2500  0.212132  0.777817  0.424264  
419  200  0.10  2500  0.282843  0.707107  0.424264  
420  200  0.10  2500  0.353553  0.777817  0.424264  
421  200  0.10  2500  0.424264  0.707107  0.424264  
422  200  0.10  2500  0.494975  0.777817  0.424264  
423  200  0.10  2500  0.565685  0.707107  0.424264  
424  200  0.10  2500  0.636396  0.777817  0.424264  
425  200  0.10  2500  0.707107  0.707107  0.424264  
426  200  0.10  2500  0.777817  0.777817  0.424264  
427  200  0.10  2500  0.848528  0.707107  0.424264  
428  200  0.10  2500  0.919239  0.777817  0.424264  
429  200  0.10  2500  0.989949  0.707107  0.424264  
430  200  0.10  2500  0  0.848528  0.424264  
431  200  0.10  2500  0.0707107  0.919239  0.424264  
432  200  0.10  2500  0.141421  0.848528  0.424264  
433  200  0.10  2500  0.212132  0.919239  0.424264  
434  200  0.10  2500  0.282843  0.848528  0.424264  
435  200  0.10  2500  0.353553  0.919239  0.424264  
436  200  0.10  2500  0.424264  0.848528  0.424264  
437  200  0.10  2500  0.494975  0.919239  0.424264  
438  200  0.10  2500  0.565685  0.848528  0.424264  
439  200  0.10  2500  0.636396  0.919239  0.424264  
440  200  0.10  2500  0.707107  0.848528  0.424264  
441  200  0.10  2500  0.777817  0.919239  0.424264  
442  200  0.10  2500  0.848528  0.848528  0.424264  
443  200  0.10  2500  0.919239  0.919239  0.424264  
444  200  0.10  2500  0.989949  0.848528  0.424264  
445  200  0.10  2500  0  0.989949  0.424264  
446  200  0.10  2500  0.141421  0.989949  0.424264  
447  200  0.10  2500  0.282843  0.989949  0.424264  
448  200  0.10  2500  0.424264  0.989949  0.424264  
449  200  0.10  2500  0.565685  0.989949  0.424264  
450  200  0.10  2500  0.707107  0.989949  0.424264  
451  200  0.10  2500  0.848528  0.989949  0.424264  
452  200  0.10  2500  0.989949  0.989949  0.424264  
453  200  0.10  2500  0  0  0.565685  
454  200  0.10  2500  0.0707107  0.0707107  0.565685  
455  200  0.10  2500  0.141421  0  0.565685  
456  200  0.10  2500  0.212132  0.0707107  0.565685  
457  200  0.10  2500  0.282843  0  0.565685  
458  200  0.10  2500  0.353553  0.0707107  0.565685  
459  200  0.10  2500  0.424264  0  0.565685  
460  200  0.10  2500  0.494975  0.0707107  0.565685  
461  200  0.10  2500  0.565685  0  0.565685  
462  200  0.10  2500  0.636396  0.0707107  0.565685  
463  200  0.10  2500  0.707107  0  0.565685  
464  200  0.10  2500  0.777817  0.0707107  0.565685  
465  200  0.10  2500  0.848528  0  0.565685  
466  200  0.10  2500  0.919239  0.0707107  0.565685  
467  200  0.10  2500  0.989949  0  0.565685  
468  200  0.10  2500  0  0.141421  0.565685  
469  200  0.10  2500  0.0707107  0.212132  0.565685  
470  200  0.10  2500  0.141421  0.141421  0.565685  
471  200  0.10  2500  0.212132  0.212132  0.565685  
472  200  0.10  2500  0.282843  0.141421  0.565685  
473  200  0.10  2500  0.353553  0.212132  0.565685  
474  200  0.10  2500  0.424264  0.141421  0.565685  
475  200  0.10  2500  0.494975  0.212132  0.565685  
476  200  0.10  2500  0.565685  0.141421  0.565685  
477  200  0.10  2500  0.636396  0.212132  0.565685  
478  200  0.10  2500  0.707107  0.141421  0.565685  
479  200  0.10  2500  0.777817  0.212132  0.565685  
480  200  0.10  2500  0.848528  0.141421  0.565685  
481  200  0.10  2500  0.919239  0.212132  0.565685  
482  200  0.10  2500  0.989949  0.141421  0.565685  
483  200  0.10  2500  0  0.282843  0.565685  
484  200  0.10  2500  0.0707107  0.353553  0.565685  
485  200  0.10  2500  0.141421  0.282843  0.565685  
486  200  0.10  2500  0.212132  0.353553  0.565685  
487  200  0.10  2500  0.282843  0.282843  0.565685  
488  200  0.10  2500  0.353553  0.353553  0.565685  
489  200  0.10  2500  0.424264  0.282843  0.565685  
490  200  0.10  2500  0.494975  0.353553  0.565685  
491  200  0.10  2500  0.565685  0.282843  0.565685  
492  200  0.10  2500  0.636396  0.353553  0.565685  
493  200  0.10  2500  0.707107  0.282843  0.565685  
494  200  0.10  2500  0.777817  0.353553  0.565685  
495  200  0.10  2500  0.848528  0.282843  0.565685  
496  200  0.10  2500  0.919239  0.353553  0.565685  
497  200  0.10  2500  0.989949  0.282843  0.565685  
498  200  0.10  2500  0  0.424264  0.565685  
499  200  0.10  2500  0.0707107  0.494975  0.565685  
500  200  0.10  2500  0.141421  0.424264  0.565685  
501  200  0.10  2500  0.212132  0.494975  0.565685  
502  200  0.10  2500  0.282843  0.424264  0.565685  
503  200  0.10  2500  0.353553  0.494975  0.565685  
504  200  0.10  2500  0.424264  0.424264  0.565685  
505  200  0.10  2500  0.494975  0.494975  0.565685  
506  200  0.10  2500  0.565685  0.424264  0.565685  
507  200  0.10  2500  0.636396  0.494975  0.565685  
508  200  0.10  2500  0.707107  0.424264  0.565685  
509  200  0.10  2500  0.777817  0.494975  0.565685  
510  200  0.10  2500  0.848528  0.424264  0.565685  
511  200  0.10  2500  0.919239  0.494975  0.565685  
512  200  0.10  2500  0.989949  0.424264  0.565685  
513  200  0.10  2500  0  0.565685  0.565685  
514  200  0.10  2500  0.0707107  0.636396  0.565685  
515  200  0.10  2500  0.141421  0.565685  0.565685  
516  200  0.10  2500  0.212132  0.636396  0.565685  
517  200  0.10  2500  0.282843  0.565685  0.565685  
518  200  0.10  2500  0.353553  0.636396  0.565685  
519  200  0.10  2500  0.424264  0.565685  0.565685  
520  200  0.10  2500  0.494975  0.636396  0.565685  
521  200  0.10  2500  0.565685  0.565685  0.565685  
522  200  0.10  2500  0.636396  0.636396  0.565685  
523  200  0.10  2500  0.707107  0.565685  0.565685  
524  200  0.10  2500  0.777817  0.636396  0.565685  
525  200  0.10  2500  0.848528  0.565685  0.565685  
526  200  0.10  2500  0.919239  0.636396  0.565685  
527  200  0.10  2500  0.989949  0.565685  0.565685  
528  200  0.10  2500  0  0.707107  0.565685  
529  200  0.10  2500  0.0707107  0.777817  0.565685  
530  200  0.10  2500  0.141421  0.707107  0.565685  
531  200  0.10  2500  0.212132  0.777817  0.565685  
532  200  0.10  2500  0.282843  0.707107  0.565685  
533  200  0.10  2500  0.353553  0.777817  0.565685  
534  200  0.10  2500  0.424264  0.707107  0.565685  
535  200  0.10  2500  0.494975  0.777817  0.565685  
536  200  0.10  2500  0.565685  0.707107  0.565685  
537  200  0.10  2500  0.636396  0.777817  0.565685  
538  200  0.10  2500  0.707107  0.707107  0.565685  
539  200  0.10  2500  0.777817  0.777817  0.565685  
540  200  0.10  2500  0.848528  0.707107  0.565685  
541  200  0.10  2500  0.919239  0.777817  0.565685  
542  200  0.10  2500  0.989949  0.707107  0.565685  
543  200  0.10  2500  0  0.848528  0.565685  
544  200  0.10  2500  0.0707107  0.919239  0.565685  
545  200  0.10  2500  0.141421  0.848528  0.565685  
546  200  0.10  2500  0.212132  0.919239  0.565685  
547  200  0.10  2500  0.282843  0.848528  0.565685  
548  200  0.10  2500  0.353553  0.919239  0.565685  
549  200  0.10  2500  0.424264  0.848528  0.565685  
550  200  0.10  2500  0.494975  0.919239  0.565685  
551  200  0.10  2500  0.565685  0.848528  0.565685  
552  200  0.10  2500  0.636396  0.919239  0.565685  
553  200  0.10  2500  0.707107  0.848528  0.565685  
554  200  0.10  2500  0.777817  0.919239  0.565685  
555  200  0.10  2500  0.848528  0.848528  0.565685  
556  200  0.10  2500  0.919239  0.919239  0.565685  
557  200  0.10  2500  0.989949  0.848528  0.565685  
558  200  0.10  2500  0  0.989949  0.565685  
559  200  0.10  2500  0.141421  0.989949  0.565685  
560  200  0.10  2500  0.282843  0.989949  0.565685  
561  200  0.10  2500  0.424264  0.989949  0.565685  
562  200  0.10  2500  0.565685  0.989949  0.565685  
563  200  0.10  2500  0.707107  0.989949  0.565685  
564  200  0.10  2500  0.848528  0.989949  0.565685  
565  200  0.10  2500  0.989949  0.989949  0.565685  
566  200  0.10  2500  0  0  0.707107  
567  200  0.10  2500  0.0707107  0.0707107  0.707107  
568  200  0.10  2500  0.141421  0  0.707107  
569  200  0.10  2500  0.212132  0.0707107  0.707107  
570  200  0.10  2500  0.282843  0  0.707107  
571  200  0.10  2500  0.353553  0.0707107  0.707107  
572  200  0.10  2500  0.424264  0  0.707107  
573  200  0.10  2500  0.494975  0.0707107  0.707107  
574  200  0.10  2500  0.565685  0  0.707107  
575  200  0.10  2500  0.636396  0.0707107  0.707107  
576  200  0.10  2500  0.707107  0  0.707107  
577  200  0.10  2500  0.777817  0.0707107  0.707107  
578  200  0.10  2500  0.848528  0  0.707107  
579  200  0.10  2500  0.919239  0.0707107  0.707107  
580  200  0.10  2500  0.989949  0  0.707107  
581  200  0.10  2500  0  0.141421  0.707107  
582  200  0.10  2500  0.0707107  0.212132  0.707107  
583  200  0.10  2500  0.141421  0.141421  0.707107  
584  200  0.10  2500  0.212132  0.212132  0.707107  
585  200  0.10  2500  0.282843  0.141421  0.707107  
586  200  0.10  2500  0.353553  0.212132  0.707107  
587  200  0.10  2500  0.424264  0.141421  0.707107  
588  200  0.10  2500  0.494975  0.212132  0.707107  