  LIGGGHTS Description 
 
           1687  atoms 
 
           2  atom types
           0  bond types
           0  angle types
           
-1.000000 2.500000 xlo xhi
-1.000000 2.500000 ylo yhi
-1.000000 2.500000 zlo zhi
 
   Atoms
 
1  2  0.10  2500  0  0  0  
2  2  0.10  2500  0.0707107  0.0707107  0  
3  2  0.10  2500  0.141421  0  0  
4  2  0.10  2500  0.212132  0.0707107  0  
5  2  0.10  2500  0.282843  0  0  
6  2  0.10  2500  0.353553  0.0707107  0  
7  2  0.10  2500  0.424264  0  0  
8  2  0.10  2500  0.494975  0.0707107  0  
9  2  0.10  2500  0.565685  0  0  
10  2  0.10  2500  0.636396  0.0707107  0  
11  2  0.10  2500  0.707107  0  0  
12  2  0.10  2500  0.777817  0.0707107  0  
13  2  0.10  2500  0.848528  0  0  
14  2  0.10  2500  0.919239  0.0707107  0  
15  2  0.10  2500  0.989949  0  0  
16  2  0.10  2500  0  0.141421  0  
17  2  0.10  2500  0.0707107  0.212132  0  
18  2  0.10  2500  0.141421  0.141421  0  
19  2  0.10  2500  0.212132  0.212132  0  
20  2  0.10  2500  0.282843  0.141421  0  
21  2  0.10  2500  0.353553  0.212132  0  
22  2  0.10  2500  0.424264  0.141421  0  
23  2  0.10  2500  0.494975  0.212132  0  
24  2  0.10  2500  0.565685  0.141421  0  
25  2  0.10  2500  0.636396  0.212132  0  
26  2  0.10  2500  0.707107  0.141421  0  
27  2  0.10  2500  0.777817  0.212132  0  
28  2  0.10  2500  0.848528  0.141421  0  
29  2  0.10  2500  0.919239  0.212132  0  
30  2  0.10  2500  0.989949  0.141421  0  
31  2  0.10  2500  0  0.282843  0  
32  2  0.10  2500  0.0707107  0.353553  0  
33  2  0.10  2500  0.141421  0.282843  0  
34  2  0.10  2500  0.212132  0.353553  0  
35  2  0.10  2500  0.282843  0.282843  0  
36  2  0.10  2500  0.353553  0.353553  0  
37  2  0.10  2500  0.424264  0.282843  0  
38  2  0.10  2500  0.494975  0.353553  0  
39  2  0.10  2500  0.565685  0.282843  0  
40  2  0.10  2500  0.636396  0.353553  0  
41  2  0.10  2500  0.707107  0.282843  0  
42  2  0.10  2500  0.777817  0.353553  0  
43  2  0.10  2500  0.848528  0.282843  0  
44  2  0.10  2500  0.919239  0.353553  0  
45  2  0.10  2500  0.989949  0.282843  0  
46  2  0.10  2500  0  0.424264  0  
47  2  0.10  2500  0.0707107  0.494975  0  
48  2  0.10  2500  0.141421  0.424264  0  
49  2  0.10  2500  0.212132  0.494975  0  
50  2  0.10  2500  0.282843  0.424264  0  
51  2  0.10  2500  0.353553  0.494975  0  
52  2  0.10  2500  0.424264  0.424264  0  
53  2  0.10  2500  0.494975  0.494975  0  
54  2  0.10  2500  0.565685  0.424264  0  
55  2  0.10  2500  0.636396  0.494975  0  
56  2  0.10  2500  0.707107  0.424264  0  
57  2  0.10  2500  0.777817  0.494975  0  
58  2  0.10  2500  0.848528  0.424264  0  
59  2  0.10  2500  0.919239  0.494975  0  
60  2  0.10  2500  0.989949  0.424264  0  
61  2  0.10  2500  0  0.565685  0  
62  2  0.10  2500  0.0707107  0.636396  0  
63  2  0.10  2500  0.141421  0.565685  0  
64  2  0.10  2500  0.212132  0.636396  0  
65  2  0.10  2500  0.282843  0.565685  0  
66  2  0.10  2500  0.353553  0.636396  0  
67  2  0.10  2500  0.424264  0.565685  0  
68  2  0.10  2500  0.494975  0.636396  0  
69  2  0.10  2500  0.565685  0.565685  0  
70  2  0.10  2500  0.636396  0.636396  0  
71  2  0.10  2500  0.707107  0.565685  0  
72  2  0.10  2500  0.777817  0.636396  0  
73  2  0.10  2500  0.848528  0.565685  0  
74  2  0.10  2500  0.919239  0.636396  0  
75  2  0.10  2500  0.989949  0.565685  0  
76  2  0.10  2500  0  0.707107  0  
77  2  0.10  2500  0.0707107  0.777817  0  
78  2  0.10  2500  0.141421  0.707107  0  
79  2  0.10  2500  0.212132  0.777817  0  
80  2  0.10  2500  0.282843  0.707107  0  
81  2  0.10  2500  0.353553  0.777817  0  
82  2  0.10  2500  0.424264  0.707107  0  
83  2  0.10  2500  0.494975  0.777817  0  
84  2  0.10  2500  0.565685  0.707107  0  
85  2  0.10  2500  0.636396  0.777817  0  
86  2  0.10  2500  0.707107  0.707107  0  
87  2  0.10  2500  0.777817  0.777817  0  
88  2  0.10  2500  0.848528  0.707107  0  
89  2  0.10  2500  0.919239  0.777817  0  
90  2  0.10  2500  0.989949  0.707107  0  
91  2  0.10  2500  0  0.848528  0  
92  2  0.10  2500  0.0707107  0.919239  0  
93  2  0.10  2500  0.141421  0.848528  0  
94  2  0.10  2500  0.212132  0.919239  0  
95  2  0.10  2500  0.282843  0.848528  0  
96  2  0.10  2500  0.353553  0.919239  0  
97  2  0.10  2500  0.424264  0.848528  0  
98  2  0.10  2500  0.494975  0.919239  0  
99  2  0.10  2500  0.565685  0.848528  0  
100  2  0.10  2500  0.636396  0.919239  0  
101  2  0.10  2500  0.707107  0.848528  0  
102  2  0.10  2500  0.777817  0.919239  0  
103  2  0.10  2500  0.848528  0.848528  0  
104  2  0.10  2500  0.919239  0.919239  0  
105  2  0.10  2500  0.989949  0.848528  0  
106  2  0.10  2500  0  0.989949  0  
107  2  0.10  2500  0.141421  0.989949  0  
108  2  0.10  2500  0.282843  0.989949  0  
109  2  0.10  2500  0.424264  0.989949  0  
110  2  0.10  2500  0.565685  0.989949  0  
111  2  0.10  2500  0.707107  0.989949  0  
112  2  0.10  2500  0.848528  0.989949  0  
113  2  0.10  2500  0.989949  0.989949  0  
114  2  0.10  2500  0  0  0.141421  
115  2  0.10  2500  0.0707107  0.0707107  0.141421  
116  2  0.10  2500  0.141421  0  0.141421  
117  2  0.10  2500  0.212132  0.0707107  0.141421  
118  2  0.10  2500  0.282843  0  0.141421  
119  2  0.10  2500  0.353553  0.0707107  0.141421  
120  2  0.10  2500  0.424264  0  0.141421  
121  2  0.10  2500  0.494975  0.0707107  0.141421  
122  2  0.10  2500  0.565685  0  0.141421  
123  2  0.10  2500  0.636396  0.0707107  0.141421  
124  2  0.10  2500  0.707107  0  0.141421  
125  2  0.10  2500  0.777817  0.0707107  0.141421  
126  2  0.10  2500  0.848528  0  0.141421  
127  2  0.10  2500  0.919239  0.0707107  0.141421  
128  2  0.10  2500  0.989949  0  0.141421  
129  2  0.10  2500  0  0.141421  0.141421  
130  2  0.10  2500  0.0707107  0.212132  0.141421  
131  2  0.10  2500  0.141421  0.141421  0.141421  
132  2  0.10  2500  0.212132  0.212132  0.141421  
133  2  0.10  2500  0.282843  0.141421  0.141421  
134  2  0.10  2500  0.353553  0.212132  0.141421  
135  2  0.10  2500  0.424264  0.141421  0.141421  
136  2  0.10  2500  0.494975  0.212132  0.141421  
137  2  0.10  2500  0.565685  0.141421  0.141421  
138  2  0.10  2500  0.636396  0.212132  0.141421  
139  2  0.10  2500  0.707107  0.141421  0.141421  
140  2  0.10  2500  0.777817  0.212132  0.141421  
141  2  0.10  2500  0.848528  0.141421  0.141421  
142  2  0.10  2500  0.919239  0.212132  0.141421  
143  2  0.10  2500  0.989949  0.141421  0.141421  
144  2  0.10  2500  0  0.282843  0.141421  
145  2  0.10  2500  0.0707107  0.353553  0.141421  
146  2  0.10  2500  0.141421  0.282843  0.141421  
147  2  0.10  2500  0.212132  0.353553  0.141421  
148  2  0.10  2500  0.282843  0.282843  0.141421  
149  2  0.10  2500  0.353553  0.353553  0.141421  
150  2  0.10  2500  0.424264  0.282843  0.141421  
151  2  0.10  2500  0.494975  0.353553  0.141421  
152  2  0.10  2500  0.565685  0.282843  0.141421  
153  2  0.10  2500  0.636396  0.353553  0.141421  
154  2  0.10  2500  0.707107  0.282843  0.141421  
155  2  0.10  2500  0.777817  0.353553  0.141421  
156  2  0.10  2500  0.848528  0.282843  0.141421  
157  2  0.10  2500  0.919239  0.353553  0.141421  
158  2  0.10  2500  0.989949  0.282843  0.141421  
159  2  0.10  2500  0  0.424264  0.141421  
160  2  0.10  2500  0.0707107  0.494975  0.141421  
161  2  0.10  2500  0.141421  0.424264  0.141421  
162  2  0.10  2500  0.212132  0.494975  0.141421  
163  2  0.10  2500  0.282843  0.424264  0.141421  
164  2  0.10  2500  0.353553  0.494975  0.141421  
165  2  0.10  2500  0.424264  0.424264  0.141421  
166  2  0.10  2500  0.494975  0.494975  0.141421  
167  2  0.10  2500  0.565685  0.424264  0.141421  
168  2  0.10  2500  0.636396  0.494975  0.141421  
169  2  0.10  2500  0.707107  0.424264  0.141421  
170  2  0.10  2500  0.777817  0.494975  0.141421  
171  2  0.10  2500  0.848528  0.424264  0.141421  
172  2  0.10  2500  0.919239  0.494975  0.141421  
173  2  0.10  2500  0.989949  0.424264  0.141421  
174  2  0.10  2500  0  0.565685  0.141421  
175  2  0.10  2500  0.0707107  0.636396  0.141421  
176  2  0.10  2500  0.141421  0.565685  0.141421  
177  2  0.10  2500  0.212132  0.636396  0.141421  
178  2  0.10  2500  0.282843  0.565685  0.141421  
179  2  0.10  2500  0.353553  0.636396  0.141421  
180  2  0.10  2500  0.424264  0.565685  0.141421  
181  2  0.10  2500  0.494975  0.636396  0.141421  
182  2  0.10  2500  0.565685  0.565685  0.141421  
183  2  0.10  2500  0.636396  0.636396  0.141421  
184  2  0.10  2500  0.707107  0.565685  0.141421  
185  2  0.10  2500  0.777817  0.636396  0.141421  
186  2  0.10  2500  0.848528  0.565685  0.141421  
187  2  0.10  2500  0.919239  0.636396  0.141421  
188  2  0.10  2500  0.989949  0.565685  0.141421  
189  2  0.10  2500  0  0.707107  0.141421  
190  2  0.10  2500  0.0707107  0.777817  0.141421  
191  2  0.10  2500  0.141421  0.707107  0.141421  
192  2  0.10  2500  0.212132  0.777817  0.141421  
193  2  0.10  2500  0.282843  0.707107  0.141421  
194  2  0.10  2500  0.353553  0.777817  0.141421  
195  2  0.10  2500  0.424264  0.707107  0.141421  
196  2  0.10  2500  0.494975  0.777817  0.141421  
197  2  0.10  2500  0.565685  0.707107  0.141421  
198  2  0.10  2500  0.636396  0.777817  0.141421  
199  2  0.10  2500  0.707107  0.707107  0.141421  
200  2  0.10  2500  0.777817  0.777817  0.141421  
201  2  0.10  2500  0.848528  0.707107  0.141421  
202  2  0.10  2500  0.919239  0.777817  0.141421  
203  2  0.10  2500  0.989949  0.707107  0.141421  
204  2  0.10  2500  0  0.848528  0.141421  
205  2  0.10  2500  0.0707107  0.919239  0.141421  
206  2  0.10  2500  0.141421  0.848528  0.141421  
207  2  0.10  2500  0.212132  0.919239  0.141421  
208  2  0.10  2500  0.282843  0.848528  0.141421  
209  2  0.10  2500  0.353553  0.919239  0.141421  
210  2  0.10  2500  0.424264  0.848528  0.141421  
211  2  0.10  2500  0.494975  0.919239  0.141421  
212  2  0.10  2500  0.565685  0.848528  0.141421  
213  2  0.10  2500  0.636396  0.919239  0.141421  
214  2  0.10  2500  0.707107  0.848528  0.141421  
215  2  0.10  2500  0.777817  0.919239  0.141421  
216  2  0.10  2500  0.848528  0.848528  0.141421  
217  2  0.10  2500  0.919239  0.919239  0.141421  
218  2  0.10  2500  0.989949  0.848528  0.141421  
219  2  0.10  2500  0  0.989949  0.141421  
220  2  0.10  2500  0.141421  0.989949  0.141421  
221  2  0.10  2500  0.282843  0.989949  0.141421  
222  2  0.10  2500  0.424264  0.989949  0.141421  
223  2  0.10  2500  0.565685  0.989949  0.141421  
224  2  0.10  2500  0.707107  0.989949  0.141421  
225  2  0.10  2500  0.848528  0.989949  0.141421  
226  2  0.10  2500  0.989949  0.989949  0.141421  
227  2  0.10  2500  0  0  0.282843  
228  2  0.10  2500  0.0707107  0.0707107  0.282843  
229  2  0.10  2500  0.141421  0  0.282843  
230  2  0.10  2500  0.212132  0.0707107  0.282843  
231  2  0.10  2500  0.282843  0  0.282843  
232  2  0.10  2500  0.353553  0.0707107  0.282843  
233  2  0.10  2500  0.424264  0  0.282843  
234  2  0.10  2500  0.494975  0.0707107  0.282843  
235  2  0.10  2500  0.565685  0  0.282843  
236  2  0.10  2500  0.636396  0.0707107  0.282843  
237  2  0.10  2500  0.707107  0  0.282843  
238  2  0.10  2500  0.777817  0.0707107  0.282843  
239  2  0.10  2500  0.848528  0  0.282843  
240  2  0.10  2500  0.919239  0.0707107  0.282843  
241  2  0.10  2500  0.989949  0  0.282843  
242  2  0.10  2500  0  0.141421  0.282843  
243  2  0.10  2500  0.0707107  0.212132  0.282843  
244  2  0.10  2500  0.141421  0.141421  0.282843  
245  2  0.10  2500  0.212132  0.212132  0.282843  
246  2  0.10  2500  0.282843  0.141421  0.282843  
247  2  0.10  2500  0.353553  0.212132  0.282843  
248  2  0.10  2500  0.424264  0.141421  0.282843  
249  2  0.10  2500  0.494975  0.212132  0.282843  
250  2  0.10  2500  0.565685  0.141421  0.282843  
251  2  0.10  2500  0.636396  0.212132  0.282843  
252  2  0.10  2500  0.707107  0.141421  0.282843  
253  2  0.10  2500  0.777817  0.212132  0.282843  
254  2  0.10  2500  0.848528  0.141421  0.282843  
255  2  0.10  2500  0.919239  0.212132  0.282843  
256  2  0.10  2500  0.989949  0.141421  0.282843  
257  2  0.10  2500  0  0.282843  0.282843  
258  2  0.10  2500  0.0707107  0.353553  0.282843  
259  2  0.10  2500  0.141421  0.282843  0.282843  
260  2  0.10  2500  0.212132  0.353553  0.282843  
261  2  0.10  2500  0.282843  0.282843  0.282843  
262  2  0.10  2500  0.353553  0.353553  0.282843  
263  2  0.10  2500  0.424264  0.282843  0.282843  
264  2  0.10  2500  0.494975  0.353553  0.282843  
265  2  0.10  2500  0.565685  0.282843  0.282843  
266  2  0.10  2500  0.636396  0.353553  0.282843  
267  2  0.10  2500  0.707107  0.282843  0.282843  
268  2  0.10  2500  0.777817  0.353553  0.282843  
269  2  0.10  2500  0.848528  0.282843  0.282843  
270  2  0.10  2500  0.919239  0.353553  0.282843  
271  2  0.10  2500  0.989949  0.282843  0.282843  
272  2  0.10  2500  0  0.424264  0.282843  
273  2  0.10  2500  0.0707107  0.494975  0.282843  
274  2  0.10  2500  0.141421  0.424264  0.282843  
275  2  0.10  2500  0.212132  0.494975  0.282843  
276  2  0.10  2500  0.282843  0.424264  0.282843  
277  2  0.10  2500  0.353553  0.494975  0.282843  
278  2  0.10  2500  0.424264  0.424264  0.282843  
279  2  0.10  2500  0.494975  0.494975  0.282843  
280  2  0.10  2500  0.565685  0.424264  0.282843  
281  2  0.10  2500  0.636396  0.494975  0.282843  
282  2  0.10  2500  0.707107  0.424264  0.282843  
283  2  0.10  2500  0.777817  0.494975  0.282843  
284  2  0.10  2500  0.848528  0.424264  0.282843  
285  2  0.10  2500  0.919239  0.494975  0.282843  
286  2  0.10  2500  0.989949  0.424264  0.282843  
287  2  0.10  2500  0  0.565685  0.282843  
288  2  0.10  2500  0.0707107  0.636396  0.282843  
289  2  0.10  2500  0.141421  0.565685  0.282843  
290  2  0.10  2500  0.212132  0.636396  0.282843  
291  2  0.10  2500  0.282843  0.565685  0.282843  
292  2  0.10  2500  0.353553  0.636396  0.282843  
293  2  0.10  2500  0.424264  0.565685  0.282843  
294  2  0.10  2500  0.494975  0.636396  0.282843  
295  2  0.10  2500  0.565685  0.565685  0.282843  
296  2  0.10  2500  0.636396  0.636396  0.282843  
297  2  0.10  2500  0.707107  0.565685  0.282843  
298  2  0.10  2500  0.777817  0.636396  0.282843  
299  2  0.10  2500  0.848528  0.565685  0.282843  
300  2  0.10  2500  0.919239  0.636396  0.282843  
301  2  0.10  2500  0.989949  0.565685  0.282843  
302  2  0.10  2500  0  0.707107  0.282843  
303  2  0.10  2500  0.0707107  0.777817  0.282843  
304  2  0.10  2500  0.141421  0.707107  0.282843  
305  2  0.10  2500  0.212132  0.777817  0.282843  
306  2  0.10  2500  0.282843  0.707107  0.282843  
307  2  0.10  2500  0.353553  0.777817  0.282843  
308  2  0.10  2500  0.424264  0.707107  0.282843  
309  2  0.10  2500  0.494975  0.777817  0.282843  
310  2  0.10  2500  0.565685  0.707107  0.282843  
311  2  0.10  2500  0.636396  0.777817  0.282843  
312  2  0.10  2500  0.707107  0.707107  0.282843  
313  2  0.10  2500  0.777817  0.777817  0.282843  
314  2  0.10  2500  0.848528  0.707107  0.282843  
315  2  0.10  2500  0.919239  0.777817  0.282843  
316  2  0.10  2500  0.989949  0.707107  0.282843  
317  2  0.10  2500  0  0.848528  0.282843  
318  2  0.10  2500  0.0707107  0.919239  0.282843  
319  2  0.10  2500  0.141421  0.848528  0.282843  
320  2  0.10  2500  0.212132  0.919239  0.282843  
321  2  0.10  2500  0.282843  0.848528  0.282843  
322  2  0.10  2500  0.353553  0.919239  0.282843  
323  2  0.10  2500  0.424264  0.848528  0.282843  
324  2  0.10  2500  0.494975  0.919239  0.282843  
325  2  0.10  2500  0.565685  0.848528  0.282843  
326  2  0.10  2500  0.636396  0.919239  0.282843  
327  2  0.10  2500  0.707107  0.848528  0.282843  
328  2  0.10  2500  0.777817  0.919239  0.282843  
329  2  0.10  2500  0.848528  0.848528  0.282843  
330  2  0.10  2500  0.919239  0.919239  0.282843  
331  2  0.10  2500  0.989949  0.848528  0.282843  
332  2  0.10  2500  0  0.989949  0.282843  
333  2  0.10  2500  0.141421  0.989949  0.282843  
334  2  0.10  2500  0.282843  0.989949  0.282843  
335  2  0.10  2500  0.424264  0.989949  0.282843  
336  2  0.10  2500  0.565685  0.989949  0.282843  
337  2  0.10  2500  0.707107  0.989949  0.282843  
338  2  0.10  2500  0.848528  0.989949  0.282843  
339  2  0.10  2500  0.989949  0.989949  0.282843  
340  2  0.10  2500  0  0  0.424264  
341  2  0.10  2500  0.0707107  0.0707107  0.424264  
342  2  0.10  2500  0.141421  0  0.424264  
343  2  0.10  2500  0.212132  0.0707107  0.424264  
344  2  0.10  2500  0.282843  0  0.424264  
345  2  0.10  2500  0.353553  0.0707107  0.424264  
346  2  0.10  2500  0.424264  0  0.424264  
347  2  0.10  2500  0.494975  0.0707107  0.424264  
348  2  0.10  2500  0.565685  0  0.424264  
349  2  0.10  2500  0.636396  0.0707107  0.424264  
350  2  0.10  2500  0.707107  0  0.424264  
351  2  0.10  2500  0.777817  0.0707107  0.424264  
352  2  0.10  2500  0.848528  0  0.424264  
353  2  0.10  2500  0.919239  0.0707107  0.424264  
354  2  0.10  2500  0.989949  0  0.424264  
355  2  0.10  2500  0  0.141421  0.424264  
356  2  0.10  2500  0.0707107  0.212132  0.424264  
357  2  0.10  2500  0.141421  0.141421  0.424264  
358  2  0.10  2500  0.212132  0.212132  0.424264  
359  2  0.10  2500  0.282843  0.141421  0.424264  
360  2  0.10  2500  0.353553  0.212132  0.424264  
361  2  0.10  2500  0.424264  0.141421  0.424264  
362  2  0.10  2500  0.494975  0.212132  0.424264  
363  2  0.10  2500  0.565685  0.141421  0.424264  
364  2  0.10  2500  0.636396  0.212132  0.424264  
365  2  0.10  2500  0.707107  0.141421  0.424264  
366  2  0.10  2500  0.777817  0.212132  0.424264  
367  2  0.10  2500  0.848528  0.141421  0.424264  
368  2  0.10  2500  0.919239  0.212132  0.424264  
369  2  0.10  2500  0.989949  0.141421  0.424264  
370  2  0.10  2500  0  0.282843  0.424264  
371  2  0.10  2500  0.0707107  0.353553  0.424264  
372  2  0.10  2500  0.141421  0.282843  0.424264  
373  2  0.10  2500  0.212132  0.353553  0.424264  
374  2  0.10  2500  0.282843  0.282843  0.424264  
375  2  0.10  2500  0.353553  0.353553  0.424264  
376  2  0.10  2500  0.424264  0.282843  0.424264  
377  2  0.10  2500  0.494975  0.353553  0.424264  
378  2  0.10  2500  0.565685  0.282843  0.424264  
379  2  0.10  2500  0.636396  0.353553  0.424264  
380  2  0.10  2500  0.707107  0.282843  0.424264  
381  2  0.10  2500  0.777817  0.353553  0.424264  
382  2  0.10  2500  0.848528  0.282843  0.424264  
383  2  0.10  2500  0.919239  0.353553  0.424264  
384  2  0.10  2500  0.989949  0.282843  0.424264  
385  2  0.10  2500  0  0.424264  0.424264  
386  2  0.10  2500  0.0707107  0.494975  0.424264  
387  2  0.10  2500  0.141421  0.424264  0.424264  
388  2  0.10  2500  0.212132  0.494975  0.424264  
389  2  0.10  2500  0.282843  0.424264  0.424264  
390  2  0.10  2500  0.353553  0.494975  0.424264  
391  2  0.10  2500  0.424264  0.424264  0.424264  
392  2  0.10  2500  0.494975  0.494975  0.424264  
393  2  0.10  2500  0.565685  0.424264  0.424264  
394  2  0.10  2500  0.636396  0.494975  0.424264  
395  2  0.10  2500  0.707107  0.424264  0.424264  
396  2  0.10  2500  0.777817  0.494975  0.424264  
397  2  0.10  2500  0.848528  0.424264  0.424264  
398  2  0.10  2500  0.919239  0.494975  0.424264  
399  2  0.10  2500  0.989949  0.424264  0.424264  
400  2  0.10  2500  0  0.565685  0.424264  
401  2  0.10  2500  0.0707107  0.636396  0.424264  
402  2  0.10  2500  0.141421  0.565685  0.424264  
403  2  0.10  2500  0.212132  0.636396  0.424264  
404  2  0.10  2500  0.282843  0.565685  0.424264  
405  2  0.10  2500  0.353553  0.636396  0.424264  
406  2  0.10  2500  0.424264  0.565685  0.424264  
407  2  0.10  2500  0.494975  0.636396  0.424264  
408  2  0.10  2500  0.565685  0.565685  0.424264  
409  2  0.10  2500  0.636396  0.636396  0.424264  
410  2  0.10  2500  0.707107  0.565685  0.424264  
411  2  0.10  2500  0.777817  0.636396  0.424264  
412  2  0.10  2500  0.848528  0.565685  0.424264  
413  2  0.10  2500  0.919239  0.636396  0.424264  
414  2  0.10  2500  0.989949  0.565685  0.424264  
415  2  0.10  2500  0  0.707107  0.424264  
416  2  0.10  2500  0.0707107  0.777817  0.424264  
417  2  0.10  2500  0.141421  0.707107  0.424264  
418  2  0.10  2500  0.212132  0.777817  0.424264  
419  2  0.10  2500  0.282843  0.707107  0.424264  
420  2  0.10  2500  0.353553  0.777817  0.424264  
421  2  0.10  2500  0.424264  0.707107  0.424264  
422  2  0.10  2500  0.494975  0.777817  0.424264  
423  2  0.10  2500  0.565685  0.707107  0.424264  
424  2  0.10  2500  0.636396  0.777817  0.424264  
425  2  0.10  2500  0.707107  0.707107  0.424264  
426  2  0.10  2500  0.777817  0.777817  0.424264  
427  2  0.10  2500  0.848528  0.707107  0.424264  
428  2  0.10  2500  0.919239  0.777817  0.424264  
429  2  0.10  2500  0.989949  0.707107  0.424264  
430  2  0.10  2500  0  0.848528  0.424264  
431  2  0.10  2500  0.0707107  0.919239  0.424264  
432  2  0.10  2500  0.141421  0.848528  0.424264  
433  2  0.10  2500  0.212132  0.919239  0.424264  
434  2  0.10  2500  0.282843  0.848528  0.424264  
435  2  0.10  2500  0.353553  0.919239  0.424264  
436  2  0.10  2500  0.424264  0.848528  0.424264  
437  2  0.10  2500  0.494975  0.919239  0.424264  
438  2  0.10  2500  0.565685  0.848528  0.424264  
439  2  0.10  2500  0.636396  0.919239  0.424264  
440  2  0.10  2500  0.707107  0.848528  0.424264  
441  2  0.10  2500  0.777817  0.919239  0.424264  
442  2  0.10  2500  0.848528  0.848528  0.424264  
443  2  0.10  2500  0.919239  0.919239  0.424264  
444  2  0.10  2500  0.989949  0.848528  0.424264  
445  2  0.10  2500  0  0.989949  0.424264  
446  2  0.10  2500  0.141421  0.989949  0.424264  
447  2  0.10  2500  0.282843  0.989949  0.424264  
448  2  0.10  2500  0.424264  0.989949  0.424264  
449  2  0.10  2500  0.565685  0.989949  0.424264  
450  2  0.10  2500  0.707107  0.989949  0.424264  
451  2  0.10  2500  0.848528  0.989949  0.424264  
452  2  0.10  2500  0.989949  0.989949  0.424264  
453  2  0.10  2500  0  0  0.565685  
454  2  0.10  2500  0.0707107  0.0707107  0.565685  
455  2  0.10  2500  0.141421  0  0.565685  
456  2  0.10  2500  0.212132  0.0707107  0.565685  
457  2  0.10  2500  0.282843  0  0.565685  
458  2  0.10  2500  0.353553  0.0707107  0.565685  
459  2  0.10  2500  0.424264  0  0.565685  
460  2  0.10  2500  0.494975  0.0707107  0.565685  
461  2  0.10  2500  0.565685  0  0.565685  
462  2  0.10  2500  0.636396  0.0707107  0.565685  
463  2  0.10  2500  0.707107  0  0.565685  
464  2  0.10  2500  0.777817  0.0707107  0.565685  
465  2  0.10  2500  0.848528  0  0.565685  
466  2  0.10  2500  0.919239  0.0707107  0.565685  
467  2  0.10  2500  0.989949  0  0.565685  
468  2  0.10  2500  0  0.141421  0.565685  
469  2  0.10  2500  0.0707107  0.212132  0.565685  
470  2  0.10  2500  0.141421  0.141421  0.565685  
471  2  0.10  2500  0.212132  0.212132  0.565685  
472  2  0.10  2500  0.282843  0.141421  0.565685  
473  2  0.10  2500  0.353553  0.212132  0.565685  
474  2  0.10  2500  0.424264  0.141421  0.565685  
475  2  0.10  2500  0.494975  0.212132  0.565685  
476  2  0.10  2500  0.565685  0.141421  0.565685  
477  2  0.10  2500  0.636396  0.212132  0.565685  
478  2  0.10  2500  0.707107  0.141421  0.565685  
479  2  0.10  2500  0.777817  0.212132  0.565685  
480  2  0.10  2500  0.848528  0.141421  0.565685  
481  2  0.10  2500  0.919239  0.212132  0.565685  
482  2  0.10  2500  0.989949  0.141421  0.565685  
483  2  0.10  2500  0  0.282843  0.565685  
484  2  0.10  2500  0.0707107  0.353553  0.565685  
485  2  0.10  2500  0.141421  0.282843  0.565685  
486  2  0.10  2500  0.212132  0.353553  0.565685  
487  2  0.10  2500  0.282843  0.282843  0.565685  
488  2  0.10  2500  0.353553  0.353553  0.565685  
489  2  0.10  2500  0.424264  0.282843  0.565685  
490  2  0.10  2500  0.494975  0.353553  0.565685  
491  2  0.10  2500  0.565685  0.282843  0.565685  
492  2  0.10  2500  0.636396  0.353553  0.565685  
493  2  0.10  2500  0.707107  0.282843  0.565685  
494  2  0.10  2500  0.777817  0.353553  0.565685  
495  2  0.10  2500  0.848528  0.282843  0.565685  
496  2  0.10  2500  0.919239  0.353553  0.565685  
497  2  0.10  2500  0.989949  0.282843  0.565685  
498  2  0.10  2500  0  0.424264  0.565685  
499  2  0.10  2500  0.0707107  0.494975  0.565685  
500  2  0.10  2500  0.141421  0.424264  0.565685  
501  2  0.10  2500  0.212132  0.494975  0.565685  
502  2  0.10  2500  0.282843  0.424264  0.565685  
503  2  0.10  2500  0.353553  0.494975  0.565685  
504  2  0.10  2500  0.424264  0.424264  0.565685  
505  2  0.10  2500  0.494975  0.494975  0.565685  
506  2  0.10  2500  0.565685  0.424264  0.565685  
507  2  0.10  2500  0.636396  0.494975  0.565685  
508  2  0.10  2500  0.707107  0.424264  0.565685  
509  2  0.10  2500  0.777817  0.494975  0.565685  
510  2  0.10  2500  0.848528  0.424264  0.565685  
511  2  0.10  2500  0.919239  0.494975  0.565685  
512  2  0.10  2500  0.989949  0.424264  0.565685  
513  2  0.10  2500  0  0.565685  0.565685  
514  2  0.10  2500  0.0707107  0.636396  0.565685  
515  2  0.10  2500  0.141421  0.565685  0.565685  
516  2  0.10  2500  0.212132  0.636396  0.565685  
517  2  0.10  2500  0.282843  0.565685  0.565685  
518  2  0.10  2500  0.353553  0.636396  0.565685  
519  2  0.10  2500  0.424264  0.565685  0.565685  
520  2  0.10  2500  0.494975  0.636396  0.565685  
521  2  0.10  2500  0.565685  0.565685  0.565685  
522  2  0.10  2500  0.636396  0.636396  0.565685  
523  2  0.10  2500  0.707107  0.565685  0.565685  
524  2  0.10  2500  0.777817  0.636396  0.565685  
525  2  0.10  2500  0.848528  0.565685  0.565685  
526  2  0.10  2500  0.919239  0.636396  0.565685  
527  2  0.10  2500  0.989949  0.565685  0.565685  
528  2  0.10  2500  0  0.707107  0.565685  
529  2  0.10  2500  0.0707107  0.777817  0.565685  
530  2  0.10  2500  0.141421  0.707107  0.565685  
531  2  0.10  2500  0.212132  0.777817  0.565685  
532  2  0.10  2500  0.282843  0.707107  0.565685  
533  2  0.10  2500  0.353553  0.777817  0.565685  
534  2  0.10  2500  0.424264  0.707107  0.565685  
535  2  0.10  2500  0.494975  0.777817  0.565685  
536  2  0.10  2500  0.565685  0.707107  0.565685  
537  2  0.10  2500  0.636396  0.777817  0.565685  
538  2  0.10  2500  0.707107  0.707107  0.565685  
539  2  0.10  2500  0.777817  0.777817  0.565685  
540  2  0.10  2500  0.848528  0.707107  0.565685  
541  2  0.10  2500  0.919239  0.777817  0.565685  
542  2  0.10  2500  0.989949  0.707107  0.565685  
543  2  0.10  2500  0  0.848528  0.565685  
544  2  0.10  2500  0.0707107  0.919239  0.565685  
545  2  0.10  2500  0.141421  0.848528  0.565685  
546  2  0.10  2500  0.212132  0.919239  0.565685  
547  2  0.10  2500  0.282843  0.848528  0.565685  
548  2  0.10  2500  0.353553  0.919239  0.565685  
549  2  0.10  2500  0.424264  0.848528  0.565685  
550  2  0.10  2500  0.494975  0.919239  0.565685  
551  2  0.10  2500  0.565685  0.848528  0.565685  
552  2  0.10  2500  0.636396  0.919239  0.565685  
553  2  0.10  2500  0.707107  0.848528  0.565685  
554  2  0.10  2500  0.777817  0.919239  0.565685  
555  2  0.10  2500  0.848528  0.848528  0.565685  
556  2  0.10  2500  0.919239  0.919239  0.565685  
557  2  0.10  2500  0.989949  0.848528  0.565685  
558  2  0.10  2500  0  0.989949  0.565685  
559  2  0.10  2500  0.141421  0.989949  0.565685  
560  2  0.10  2500  0.282843  0.989949  0.565685  
561  2  0.10  2500  0.424264  0.989949  0.565685  
562  2  0.10  2500  0.565685  0.989949  0.565685  
563  2  0.10  2500  0.707107  0.989949  0.565685  
564  2  0.10  2500  0.848528  0.989949  0.565685  
565  2  0.10  2500  0.989949  0.989949  0.565685  
566  2  0.10  2500  0  0  0.707107  
567  2  0.10  2500  0.0707107  0.0707107  0.707107  
568  2  0.10  2500  0.141421  0  0.707107  
569  2  0.10  2500  0.212132  0.0707107  0.707107  
570  2  0.10  2500  0.282843  0  0.707107  
571  2  0.10  2500  0.353553  0.0707107  0.707107  
572  2  0.10  2500  0.424264  0  0.707107  
573  2  0.10  2500  0.494975  0.0707107  0.707107  
574  2  0.10  2500  0.565685  0  0.707107  
575  2  0.10  2500  0.636396  0.0707107  0.707107  
576  2  0.10  2500  0.707107  0  0.707107  
577  2  0.10  2500  0.777817  0.0707107  0.707107  
578  2  0.10  2500  0.848528  0  0.707107  
579  2  0.10  2500  0.919239  0.0707107  0.707107  
580  2  0.10  2500  0.989949  0  0.707107  
581  2  0.10  2500  0  0.141421  0.707107  
582  2  0.10  2500  0.0707107  0.212132  0.707107  
583  2  0.10  2500  0.141421  0.141421  0.707107  
584  2  0.10  2500  0.212132  0.212132  0.707107  
585  2  0.10  2500  0.282843  0.141421  0.707107  
586  2  0.10  2500  0.353553  0.212132  0.707107  
587  2  0.10  2500  0.424264  0.141421  0.707107  
588  2  0.10  2500  0.494975  0.212132  0.707107  
589  2  0.10  2500  0.565685  0.141421  0.707107  
590  2  0.10  2500  0.636396  0.212132  0.707107  
591  2  0.10  2500  0.707107  0.141421  0.707107  
592  2  0.10  2500  0.777817  0.212132  0.707107  
593  2  0.10  2500  0.848528  0.141421  0.707107  
594  2  0.10  2500  0.919239  0.212132  0.707107  
595  2  0.10  2500  0.989949  0.141421  0.707107  
596  2  0.10  2500  0  0.282843  0.707107  
597  2  0.10  2500  0.0707107  0.353553  0.707107  
598  2  0.10  2500  0.141421  0.282843  0.707107  
599  2  0.10  2500  0.212132  0.353553  0.707107  
600  2  0.10  2500  0.282843  0.282843  0.707107  
601  2  0.10  2500  0.353553  0.353553  0.707107  
602  2  0.10  2500  0.424264  0.282843  0.707107  
603  2  0.10  2500  0.494975  0.353553  0.707107  
604  2  0.10  2500  0.565685  0.282843  0.707107  
605  2  0.10  2500  0.636396  0.353553  0.707107  
606  2  0.10  2500  0.707107  0.282843  0.707107  
607  2  0.10  2500  0.777817  0.353553  0.707107  
608  2  0.10  2500  0.848528  0.282843  0.707107  
609  2  0.10  2500  0.919239  0.353553  0.707107  
610  2  0.10  2500  0.989949  0.282843  0.707107  
611  2  0.10  2500  0  0.424264  0.707107  
612  2  0.10  2500  0.0707107  0.494975  0.707107  